REMARK SMILES Nc1ncnc2c1ncn2[C@@H]1O[C@H](CO)[C@@H](O)[C@@H]1O
REMARK SMILES IDX 11 1 12 2 13 3 16 4 18 5 10 6 2 7 3 8 7 9 4 10 6 11 8 12
REMARK SMILES IDX 5 13 9 14 1 15 19 18 14 20 15 21 17 23
REMARK H PARENT 1 16 1 17 19 19 15 22 17 24
ROOT
ATOM      1  C   UNL     1      -0.543   0.232   0.685  1.00  0.00     0.253 C 
ATOM      2  O   UNL     1      -1.318  -0.911   1.117  1.00  0.00    -0.347 OA
ATOM      3  C   UNL     1      -2.711  -0.662   0.824  1.00  0.00     0.178 C 
ATOM      4  C   UNL     1      -2.813   0.786   0.330  1.00  0.00     0.179 C 
ATOM      5  C   UNL     1      -1.428   1.084  -0.230  1.00  0.00     0.195 C 
ENDROOT
BRANCH   1   6
ATOM      6  N   UNL     1       0.706  -0.203   0.107  1.00  0.00    -0.285 N 
ATOM      7  C   UNL     1       4.058   0.293  -0.761  1.00  0.00     0.155 A 
ATOM      8  N   UNL     1       4.287   1.558  -0.342  1.00  0.00    -0.217 NA
ATOM      9  C   UNL     1       2.778  -0.255  -0.575  1.00  0.00     0.150 A 
ATOM     10  C   UNL     1       3.279   2.226   0.261  1.00  0.00     0.226 A 
ATOM     11  C   UNL     1       1.844   0.553   0.054  1.00  0.00     0.167 A 
ATOM     12  N   UNL     1       2.226  -1.476  -0.909  1.00  0.00    -0.231 NA
ATOM     13  N   UNL     1       2.021   1.805   0.508  1.00  0.00    -0.216 NA
ATOM     14  C   UNL     1       0.981  -1.407  -0.483  1.00  0.00     0.204 A 
BRANCH   7  15
ATOM     15  N   UNL     1       5.098  -0.395  -1.376  1.00  0.00    -0.382 N 
ATOM     16  H   UNL     1       5.786   0.236  -1.767  1.00  0.00     0.158 HD
ATOM     17  H   UNL     1       4.776  -1.160  -1.959  1.00  0.00     0.158 HD
ENDBRANCH   7  15
ENDBRANCH   1   6
BRANCH   5  18
ATOM     18  O   UNL     1      -1.354   0.725  -1.612  1.00  0.00    -0.386 OA
ATOM     19  H   UNL     1      -1.658  -0.205  -1.707  1.00  0.00     0.211 HD
ENDBRANCH   5  18
BRANCH   3  20
ATOM     20  C   UNL     1      -3.195  -1.714  -0.183  1.00  0.00     0.191 C 
BRANCH  20  21
ATOM     21  O   UNL     1      -2.504  -1.601  -1.426  1.00  0.00    -0.394 OA
ATOM     22  H   UNL     1      -2.801  -2.350  -1.979  1.00  0.00     0.210 HD
ENDBRANCH  20  21
ENDBRANCH   3  20
BRANCH   4  23
ATOM     23  O   UNL     1      -3.097   1.660   1.433  1.00  0.00    -0.387 OA
ATOM     24  H   UNL     1      -2.561   1.403   2.204  1.00  0.00     0.211 HD
ENDBRANCH   4  23
TORSDOF 6
