REMARK SMILES Nc1cc2c(cn1)[nH]c1ccccc12
REMARK SMILES IDX 2 1 3 2 4 3 5 4 6 5 7 6 8 7 9 8 10 9 11 10 12 11 13 12 14 13
REMARK SMILES IDX 1 15
REMARK H PARENT 8 14 1 16 1 17
ROOT
ATOM      1  C   UNL     1       2.863  -0.565  -0.367  1.00  0.00     0.124 A 
ATOM      2  C   UNL     1       1.567  -1.055  -0.456  1.00  0.00     0.057 A 
ATOM      3  C   UNL     1       0.525  -0.178  -0.118  1.00  0.00     0.013 A 
ATOM      4  C   UNL     1       0.857   1.116   0.273  1.00  0.00     0.065 A 
ATOM      5  C   UNL     1       2.173   1.549   0.332  1.00  0.00     0.140 A 
ATOM      6  N   UNL     1       3.166   0.689   0.007  1.00  0.00    -0.238 NA
ATOM      7  N   UNL     1      -0.318   1.774   0.545  1.00  0.00    -0.353 N 
ATOM      8  C   UNL     1      -1.400   0.948   0.345  1.00  0.00     0.046 A 
ATOM      9  C   UNL     1      -2.768   1.199   0.501  1.00  0.00     0.027 A 
ATOM     10  C   UNL     1      -3.654   0.156   0.218  1.00  0.00     0.002 A 
ATOM     11  C   UNL     1      -3.188  -1.087  -0.204  1.00  0.00     0.001 A 
ATOM     12  C   UNL     1      -1.816  -1.321  -0.354  1.00  0.00     0.011 A 
ATOM     13  C   UNL     1      -0.901  -0.285  -0.074  1.00  0.00     0.007 A 
ATOM     14  H   UNL     1      -0.383   2.734   0.849  1.00  0.00     0.167 HD
ENDROOT
BRANCH   1  15
ATOM     15  N   UNL     1       3.943  -1.382  -0.702  1.00  0.00    -0.384 N 
ATOM     16  H   UNL     1       4.783  -0.836  -0.521  1.00  0.00     0.158 HD
ATOM     17  H   UNL     1       3.932  -2.243  -0.168  1.00  0.00     0.158 HD
ENDBRANCH   1  15
TORSDOF 1
