REMARK SMILES COc1cc(C=O)cc(OC)c1OC
REMARK SMILES IDX 3 1 4 2 5 3 8 4 9 5 12 6 2 7 1 8 13 9 14 10 6 11 7 12 10 13
REMARK SMILES IDX 11 14
REMARK H PARENT
ROOT
ATOM      1  C   UNL     1      -1.205   0.369   0.088  1.00  0.00     0.165 A 
ATOM      2  C   UNL     1      -1.393  -0.952  -0.321  1.00  0.00     0.062 A 
ATOM      3  C   UNL     1      -0.296  -1.818  -0.388  1.00  0.00     0.022 A 
ATOM      4  C   UNL     1       0.992  -1.386  -0.050  1.00  0.00     0.062 A 
ATOM      5  C   UNL     1       1.197  -0.069   0.360  1.00  0.00     0.165 A 
ATOM      6  C   UNL     1       0.095   0.805   0.407  1.00  0.00     0.203 A 
ENDROOT
BRANCH   1   7
ATOM      7  O   UNL     1      -2.200   1.306   0.189  1.00  0.00    -0.493 OA
ATOM      8  C   UNL     1      -3.542   0.858   0.062  1.00  0.00     0.278 C 
ENDBRANCH   1   7
BRANCH   6   9
ATOM      9  O   UNL     1       0.277   2.096   0.853  1.00  0.00    -0.490 OA
ATOM     10  C   UNL     1       0.590   2.950  -0.246  1.00  0.00     0.278 C 
ENDBRANCH   6   9
BRANCH   3  11
ATOM     11  C   UNL     1      -0.510  -3.213  -0.824  1.00  0.00     0.260 C 
ATOM     12  O   UNL     1       0.411  -4.015  -0.911  1.00  0.00    -0.298 OA
ENDBRANCH   3  11
BRANCH   5  13
ATOM     13  O   UNL     1       2.410   0.460   0.716  1.00  0.00    -0.493 OA
ATOM     14  C   UNL     1       3.514  -0.432   0.803  1.00  0.00     0.278 C 
ENDBRANCH   5  13
TORSDOF 4
