REMARK SMILES COc1ccccc1NC(=O)CC(C)=O
REMARK SMILES IDX 9 1 10 2 11 3 8 5 3 6 4 7 5 8 7 9 6 10 2 11 1 12 12 13 13 14
REMARK SMILES IDX 15 15 14 16
REMARK H PARENT 9 4
ROOT
ATOM      1  N   UNL     1       0.372   0.482  -0.105  1.00  0.00    -0.323 N 
ATOM      2  C   UNL     1       1.649   0.368  -0.608  1.00  0.00     0.231 C 
ATOM      3  O   UNL     1       2.025  -0.397  -1.491  1.00  0.00    -0.274 OA
ATOM      4  H   UNL     1       0.210   1.115   0.675  1.00  0.00     0.170 HD
ENDROOT
BRANCH   1   5
ATOM      5  C   UNL     1      -0.792  -0.217  -0.499  1.00  0.00     0.083 A 
ATOM      6  C   UNL     1      -1.975   0.063   0.219  1.00  0.00     0.142 A 
ATOM      7  C   UNL     1      -3.164  -0.591  -0.119  1.00  0.00     0.048 A 
ATOM      8  C   UNL     1      -3.180  -1.519  -1.162  1.00  0.00     0.004 A 
ATOM      9  C   UNL     1      -0.821  -1.146  -1.541  1.00  0.00     0.030 A 
ATOM     10  C   UNL     1      -2.013  -1.795  -1.870  1.00  0.00     0.002 A 
BRANCH   6  11
ATOM     11  O   UNL     1      -1.846   0.995   1.224  1.00  0.00    -0.495 OA
ATOM     12  C   UNL     1      -3.002   1.261   2.010  1.00  0.00     0.278 C 
ENDBRANCH   6  11
ENDBRANCH   1   5
BRANCH   2  13
ATOM     13  C   UNL     1       2.633   1.287   0.066  1.00  0.00     0.175 C 
BRANCH  13  14
ATOM     14  C   UNL     1       3.383   0.602   1.175  1.00  0.00     0.139 C 
ATOM     15  O   UNL     1       3.253   0.969   2.345  1.00  0.00    -0.299 OA
ATOM     16  C   UNL     1       4.286  -0.546   0.809  1.00  0.00     0.088 C 
ENDBRANCH  13  14
ENDBRANCH   2  13
TORSDOF 4
