REMARK SMILES COC1=CC=C2C3Cc4ccc(OC)c5c4C2(CCN3C)C1(CO)O5
REMARK SMILES IDX 3 1 4 2 5 3 6 4 7 5 8 6 9 7 10 8 11 9 12 10 15 11 16 12
REMARK SMILES IDX 17 13 18 14 19 15 20 16 21 17 22 18 25 19 2 20 1 21 23 22
REMARK SMILES IDX 24 23 13 25 14 26
REMARK H PARENT 24 24
ROOT
ATOM      1  C   UNL     1       0.674   2.263   0.554  1.00  0.00     0.143 C 
ATOM      2  C   UNL     1      -0.438   2.424   1.301  1.00  0.00     0.046 C 
ATOM      3  C   UNL     1      -1.614   1.596   1.172  1.00  0.00     0.006 C 
ATOM      4  C   UNL     1      -1.635   0.553   0.331  1.00  0.00    -0.037 C 
ATOM      5  C   UNL     1      -2.650  -0.577   0.346  1.00  0.00     0.088 C 
ATOM      6  C   UNL     1      -1.961  -1.909   0.851  1.00  0.00     0.059 C 
ATOM      7  C   UNL     1      -0.469  -2.005   0.589  1.00  0.00    -0.038 A 
ATOM      8  C   UNL     1       0.333  -3.042   1.061  1.00  0.00     0.008 A 
ATOM      9  C   UNL     1       1.739  -2.963   0.950  1.00  0.00     0.051 A 
ATOM     10  C   UNL     1       2.364  -1.826   0.413  1.00  0.00     0.161 A 
ATOM     11  C   UNL     1       1.546  -0.809  -0.049  1.00  0.00     0.167 A 
ATOM     12  C   UNL     1       0.175  -0.943  -0.035  1.00  0.00     0.016 A 
ATOM     13  C   UNL     1      -0.497   0.256  -0.620  1.00  0.00     0.073 C 
ATOM     14  C   UNL     1      -1.076  -0.055  -2.022  1.00  0.00     0.037 C 
ATOM     15  C   UNL     1      -2.253  -1.039  -2.016  1.00  0.00     0.086 C 
ATOM     16  N   UNL     1      -3.262  -0.768  -0.986  1.00  0.00    -0.299 NA
ATOM     17  C   UNL     1      -4.140   0.341  -1.357  1.00  0.00     0.106 C 
ATOM     18  C   UNL     1       0.731   1.246  -0.611  1.00  0.00     0.202 C 
ATOM     19  O   UNL     1       1.958   0.425  -0.485  1.00  0.00    -0.471 OA
ENDROOT
BRANCH   1  20
ATOM     20  O   UNL     1       1.847   2.982   0.711  1.00  0.00    -0.497 OA
ATOM     21  C   UNL     1       1.970   3.842   1.837  1.00  0.00     0.278 C 
ENDBRANCH   1  20
BRANCH  18  22
ATOM     22  C   UNL     1       0.936   2.068  -1.914  1.00  0.00     0.214 C 
BRANCH  22  23
ATOM     23  O   UNL     1       1.330   1.256  -3.025  1.00  0.00    -0.392 OA
ATOM     24  H   UNL     1       2.084   0.724  -2.700  1.00  0.00     0.210 HD
ENDBRANCH  22  23
ENDBRANCH  18  22
BRANCH  10  25
ATOM     25  O   UNL     1       3.710  -1.618   0.318  1.00  0.00    -0.493 OA
ATOM     26  C   UNL     1       4.558  -2.644   0.813  1.00  0.00     0.278 C 
ENDBRANCH  10  25
TORSDOF 4
