REMARK SMILES C/C=C1\CN2CC[C@]34c5ccccc5N[C@H]3[C@@H](CO)[C@H]1C[C@H]24
REMARK SMILES IDX 18 1 17 2 2 3 3 4 4 5 20 6 5 7 21 8 6 9 22 10 16 11 7 12
REMARK SMILES IDX 8 13 15 14 9 15 14 16 10 17 13 18 11 19 12 20 1 21 19 23
REMARK H PARENT 15 22 19 24
ROOT
ATOM      1  C   UNL     1       0.776   2.817   1.225  1.00  0.00     0.162 C 
ENDROOT
BRANCH   1   2
ATOM      2  C   UNL     1       0.768   1.533   0.383  1.00  0.00     0.045 C 
ATOM      3  C   UNL     1       3.521   0.294  -0.427  1.00  0.00    -0.030 C 
ATOM      4  C   UNL     1       2.488  -0.353   0.155  1.00  0.00    -0.057 C 
ATOM      5  C   UNL     1       2.201  -1.831  -0.009  1.00  0.00     0.115 C 
ATOM      6  C   UNL     1       1.546   0.398   1.108  1.00  0.00     0.025 C 
ATOM      7  N   UNL     1       0.789  -2.181  -0.168  1.00  0.00    -0.295 NA
ATOM      8  C   UNL     1       0.570  -0.588   1.750  1.00  0.00     0.028 C 
ATOM      9  C   UNL     1       0.307  -2.155  -1.548  1.00  0.00     0.086 C 
ATOM     10  C   UNL     1      -0.141  -1.345   0.628  1.00  0.00     0.070 C 
ATOM     11  C   UNL     1      -0.645   1.126  -0.093  1.00  0.00     0.097 C 
ATOM     12  C   UNL     1      -0.289  -0.779  -1.760  1.00  0.00     0.031 C 
ATOM     13  C   UNL     1      -0.834  -0.395  -0.386  1.00  0.00     0.035 C 
ATOM     14  N   UNL     1      -1.718   1.500   0.869  1.00  0.00    -0.381 N 
ATOM     15  C   UNL     1      -2.333  -0.477  -0.236  1.00  0.00    -0.015 A 
ATOM     16  C   UNL     1      -2.774   0.637   0.482  1.00  0.00     0.038 A 
ATOM     17  C   UNL     1      -3.221  -1.457  -0.651  1.00  0.00     0.006 A 
ATOM     18  C   UNL     1      -4.101   0.774   0.842  1.00  0.00     0.026 A 
ATOM     19  C   UNL     1      -4.571  -1.309  -0.323  1.00  0.00     0.000 A 
ATOM     20  C   UNL     1      -5.007  -0.203   0.423  1.00  0.00     0.002 A 
ATOM     21  C   UNL     1       4.569  -0.261  -1.338  1.00  0.00     0.035 C 
ATOM     22  H   UNL     1      -1.996   2.478   0.778  1.00  0.00     0.160 HD
ENDBRANCH   1   2
BRANCH   1  23
ATOM     23  O   UNL     1       0.174   3.886   0.500  1.00  0.00    -0.396 OA
ATOM     24  H   UNL     1       0.216   4.671   1.074  1.00  0.00     0.210 HD
ENDBRANCH   1  23
TORSDOF 2
