REMARK SMILES C=C(C)[C@@H]1CC[C@]2(CO)CC[C@]3(C)[C@H](CCC4[C@@]5(C)CC[C@@H](O)C(C)(C)C5CC[C@]43C)C12
REMARK SMILES IDX 4 1 5 2 6 3 7 4 10 5 11 6 12 7 13 8 14 9 15 10 16 11 17 12
REMARK SMILES IDX 18 13 19 14 20 15 21 16 22 17 24 18 25 19 26 20 27 21 28 22
REMARK SMILES IDX 29 23 30 24 31 25 32 26 2 27 1 28 3 29 8 30 9 31 23 33
REMARK H PARENT 9 32 23 34
ROOT
ATOM      1  C   UNL     1      -4.107  -1.416  -0.946  1.00  0.00     0.018 C 
ATOM      2  C   UNL     1      -5.534  -1.348  -0.366  1.00  0.00     0.009 C 
ATOM      3  C   UNL     1      -5.509  -0.197   0.641  1.00  0.00     0.010 C 
ATOM      4  C   UNL     1      -4.080  -0.192   1.246  1.00  0.00    -0.003 C 
ATOM      5  C   UNL     1      -3.497   1.237   1.263  1.00  0.00     0.010 C 
ATOM      6  C   UNL     1      -1.983   1.273   1.513  1.00  0.00     0.008 C 
ATOM      7  C   UNL     1      -1.152   0.479   0.458  1.00  0.00    -0.024 C 
ATOM      8  C   UNL     1      -1.336   1.213  -0.898  1.00  0.00     0.012 C 
ATOM      9  C   UNL     1      -1.726  -0.977   0.386  1.00  0.00    -0.000 C 
ATOM     10  C   UNL     1      -0.959  -1.866  -0.598  1.00  0.00     0.005 C 
ATOM     11  C   UNL     1       0.533  -1.932  -0.259  1.00  0.00     0.005 C 
ATOM     12  C   UNL     1       1.179  -0.529  -0.197  1.00  0.00     0.002 C 
ATOM     13  C   UNL     1       2.772  -0.541  -0.168  1.00  0.00    -0.026 C 
ATOM     14  C   UNL     1       3.327  -1.355   1.025  1.00  0.00     0.012 C 
ATOM     15  C   UNL     1       3.275  -1.236  -1.484  1.00  0.00     0.010 C 
ATOM     16  C   UNL     1       4.555  -0.657  -2.093  1.00  0.00     0.033 C 
ATOM     17  C   UNL     1       5.496  -0.065  -1.054  1.00  0.00     0.120 C 
ATOM     18  C   UNL     1       4.847   1.128  -0.289  1.00  0.00    -0.006 C 
ATOM     19  C   UNL     1       5.552   1.258   1.080  1.00  0.00     0.014 C 
ATOM     20  C   UNL     1       5.117   2.460  -1.044  1.00  0.00     0.014 C 
ATOM     21  C   UNL     1       3.281   0.942  -0.177  1.00  0.00     0.003 C 
ATOM     22  C   UNL     1       2.628   1.791   0.931  1.00  0.00     0.005 C 
ATOM     23  C   UNL     1       1.102   1.809   0.804  1.00  0.00     0.008 C 
ATOM     24  C   UNL     1       0.439   0.403   0.848  1.00  0.00    -0.024 C 
ATOM     25  C   UNL     1       0.604  -0.123   2.305  1.00  0.00     0.012 C 
ATOM     26  C   UNL     1      -3.266  -1.162   0.339  1.00  0.00     0.008 C 
ENDROOT
BRANCH   1  27
ATOM     27  C   UNL     1      -3.933  -0.614  -2.230  1.00  0.00    -0.077 C 
ATOM     28  C   UNL     1      -3.205  -1.112  -3.247  1.00  0.00     0.008 C 
ATOM     29  C   UNL     1      -4.687   0.674  -2.449  1.00  0.00     0.039 C 
ENDBRANCH   1  27
BRANCH   4  30
ATOM     30  C   UNL     1      -4.132  -0.763   2.691  1.00  0.00     0.163 C 
BRANCH  30  31
ATOM     31  O   UNL     1      -4.884   0.085   3.551  1.00  0.00    -0.396 OA
ATOM     32  H   UNL     1      -4.875  -0.323   4.433  1.00  0.00     0.210 HD
ENDBRANCH  30  31
ENDBRANCH   4  30
BRANCH  17  33
ATOM     33  O   UNL     1       6.711   0.334  -1.689  1.00  0.00    -0.393 OA
ATOM     34  H   UNL     1       7.085  -0.448  -2.129  1.00  0.00     0.210 HD
ENDBRANCH  17  33
TORSDOF 4
