REMARK SMILES CC1=CC[C@@H]2C(C)(C)C(=O)C[C@@]2(C)[C@H]1COc1ccc2ccc(=O)oc2c1
REMARK SMILES IDX 15 1 14 2 2 3 3 4 4 5 12 6 5 7 11 8 6 9 9 10 10 11 1 12
REMARK SMILES IDX 13 13 7 14 8 15 16 16 17 17 18 18 27 19 19 20 26 21 20 22
REMARK SMILES IDX 25 23 21 24 23 25 22 26 24 27
REMARK H PARENT
ROOT
ATOM      1  C   UNL     1       0.756   1.159   0.975  1.00  0.00     0.238 C 
ENDROOT
BRANCH   1   2
ATOM      2  C   UNL     1      -0.697   1.635   1.239  1.00  0.00     0.059 C 
ATOM      3  C   UNL     1      -1.161   2.681   0.206  1.00  0.00    -0.070 C 
ATOM      4  C   UNL     1      -2.189   2.471  -0.645  1.00  0.00    -0.027 C 
ATOM      5  C   UNL     1      -2.989   1.197  -0.736  1.00  0.00     0.032 C 
ATOM      6  C   UNL     1      -1.775   0.504   1.402  1.00  0.00    -0.012 C 
ATOM      7  C   UNL     1      -2.280   0.064  -0.001  1.00  0.00     0.013 C 
ATOM      8  C   UNL     1      -1.309  -0.835   1.998  1.00  0.00     0.084 C 
ATOM      9  C   UNL     1      -3.013  -1.287   0.173  1.00  0.00     0.027 C 
ATOM     10  C   UNL     1      -2.344  -1.800   1.449  1.00  0.00     0.139 C 
ATOM     11  O   UNL     1      -2.581  -2.889   1.960  1.00  0.00    -0.299 OA
ATOM     12  C   UNL     1      -0.444   4.006   0.220  1.00  0.00     0.039 C 
ATOM     13  C   UNL     1      -2.893   1.065   2.330  1.00  0.00     0.013 C 
ATOM     14  C   UNL     1      -4.531  -1.210   0.325  1.00  0.00     0.020 C 
ATOM     15  C   UNL     1      -2.673  -2.240  -0.982  1.00  0.00     0.020 C 
ENDBRANCH   1   2
BRANCH   1  16
ATOM     16  O   UNL     1       0.837   0.367  -0.206  1.00  0.00    -0.493 OA
BRANCH  16  17
ATOM     17  C   UNL     1       2.050  -0.178  -0.520  1.00  0.00     0.123 A 
ATOM     18  C   UNL     1       2.040  -1.008  -1.648  1.00  0.00     0.047 A 
ATOM     19  C   UNL     1       3.243   0.024   0.169  1.00  0.00     0.094 A 
ATOM     20  C   UNL     1       3.208  -1.639  -2.089  1.00  0.00     0.016 A 
ATOM     21  C   UNL     1       4.402  -0.611  -0.281  1.00  0.00     0.142 A 
ATOM     22  C   UNL     1       4.403  -1.441  -1.400  1.00  0.00     0.018 A 
ATOM     23  O   UNL     1       5.587  -0.377   0.447  1.00  0.00    -0.423 OA
ATOM     24  C   UNL     1       5.647  -2.071  -1.811  1.00  0.00     0.019 C 
ATOM     25  C   UNL     1       6.788  -0.965   0.073  1.00  0.00     0.336 C 
ATOM     26  C   UNL     1       6.763  -1.841  -1.112  1.00  0.00     0.094 C 
ATOM     27  O   UNL     1       7.830  -0.775   0.689  1.00  0.00    -0.246 OA
ENDBRANCH  16  17
ENDBRANCH   1  16
TORSDOF 3
