REMARK SMILES CCC(/C=C/C(C)C1CC[C@H]2C3=CC[C@H]4CC(O)CC[C@]4(C)C3CC[C@]12C)C(C)C
REMARK SMILES IDX 4 1 5 2 3 3 2 4 1 5 28 6 29 7 30 8 6 9 7 10 8 11 9 12 26 13
REMARK SMILES IDX 10 14 25 15 11 16 24 17 12 18 23 19 13 20 21 21 14 22 20 23
REMARK SMILES IDX 15 24 19 25 16 26 17 27 27 28 22 29 18 30
REMARK H PARENT 18 31
ROOT
ATOM      1  C   UNL     1      -4.599   0.430  -0.274  1.00  0.00    -0.027 C 
ATOM      2  C   UNL     1      -3.774  -0.629  -0.332  1.00  0.00    -0.028 C 
ENDROOT
BRANCH   1   3
ATOM      3  C   UNL     1      -5.905   0.439   0.499  1.00  0.00     0.014 C 
BRANCH   3   4
ATOM      4  C   UNL     1      -5.824   1.469   1.650  1.00  0.00     0.004 C 
ATOM      5  C   UNL     1      -4.676   1.218   2.623  1.00  0.00     0.004 C 
ENDBRANCH   3   4
BRANCH   3   6
ATOM      6  C   UNL     1      -7.102   0.716  -0.463  1.00  0.00    -0.011 C 
ATOM      7  C   UNL     1      -8.447   0.762   0.272  1.00  0.00     0.008 C 
ATOM      8  C   UNL     1      -7.193  -0.339  -1.577  1.00  0.00     0.008 C 
ENDBRANCH   3   6
ENDBRANCH   1   3
BRANCH   2   9
ATOM      9  C   UNL     1      -2.447  -0.718  -1.070  1.00  0.00     0.012 C 
ATOM     10  C   UNL     1      -2.387   0.226  -2.277  1.00  0.00     0.012 C 
BRANCH   9  11
ATOM     11  C   UNL     1      -1.270  -0.509  -0.077  1.00  0.00     0.002 C 
ATOM     12  C   UNL     1      -1.316  -1.496   1.124  1.00  0.00     0.005 C 
ATOM     13  C   UNL     1       0.196  -0.656  -0.601  1.00  0.00    -0.023 C 
ATOM     14  C   UNL     1       0.133  -1.722   1.576  1.00  0.00     0.009 C 
ATOM     15  C   UNL     1       0.726   0.567  -1.391  1.00  0.00     0.008 C 
ATOM     16  C   UNL     1       0.949  -0.730   0.751  1.00  0.00     0.021 C 
ATOM     17  C   UNL     1       2.161   1.009  -1.012  1.00  0.00     0.009 C 
ATOM     18  C   UNL     1       2.445  -0.899   0.610  1.00  0.00    -0.067 C 
ATOM     19  C   UNL     1       3.072  -0.159  -0.577  1.00  0.00     0.021 C 
ATOM     20  C   UNL     1       3.187  -1.607   1.477  1.00  0.00    -0.027 C 
ATOM     21  C   UNL     1       4.630   0.156  -0.446  1.00  0.00    -0.023 C 
ATOM     22  C   UNL     1       4.681  -1.596   1.447  1.00  0.00     0.031 C 
ATOM     23  C   UNL     1       5.004   1.651  -0.697  1.00  0.00     0.010 C 
ATOM     24  C   UNL     1       5.175  -0.229   0.962  1.00  0.00     0.002 C 
ATOM     25  C   UNL     1       6.249   2.155   0.051  1.00  0.00     0.032 C 
ATOM     26  C   UNL     1       6.707  -0.123   1.075  1.00  0.00     0.036 C 
ATOM     27  C   UNL     1       7.291   1.083   0.331  1.00  0.00     0.114 C 
ATOM     28  C   UNL     1       0.344  -1.946  -1.447  1.00  0.00     0.012 C 
ATOM     29  C   UNL     1       5.319  -0.703  -1.551  1.00  0.00     0.012 C 
BRANCH  27  30
ATOM     30  O   UNL     1       8.343   1.658   1.103  1.00  0.00    -0.393 OA
ATOM     31  H   UNL     1       9.008   0.965   1.253  1.00  0.00     0.210 HD
ENDBRANCH  27  30
ENDBRANCH   9  11
ENDBRANCH   2   9
TORSDOF 6
