REMARK SMILES CC1(C)CCC[C@@]2(C)[C@H]1[C@H](O)C=C(CO)[C@]2(O)CO
REMARK SMILES IDX 1 1 2 2 3 3 4 4 5 5 6 6 7 7 8 8 9 9 10 10 12 11 13 12 16 13
REMARK SMILES IDX 11 14 17 16 18 18 19 19 14 21 15 22
REMARK H PARENT 11 15 17 17 19 20 15 23
ROOT
ATOM      1  C   UNL     1      -2.909  -0.286   1.525  1.00  0.00     0.011 C 
ATOM      2  C   UNL     1      -2.250   0.460   0.330  1.00  0.00    -0.029 C 
ATOM      3  C   UNL     1      -2.849   1.883   0.345  1.00  0.00     0.011 C 
ATOM      4  C   UNL     1      -2.723  -0.226  -0.969  1.00  0.00     0.007 C 
ATOM      5  C   UNL     1      -2.110  -1.593  -1.244  1.00  0.00     0.001 C 
ATOM      6  C   UNL     1      -0.712  -1.806  -0.667  1.00  0.00     0.010 C 
ATOM      7  C   UNL     1       0.119  -0.507  -0.493  1.00  0.00     0.009 C 
ATOM      8  C   UNL     1       0.328   0.164  -1.878  1.00  0.00     0.015 C 
ATOM      9  C   UNL     1      -0.674   0.407   0.524  1.00  0.00     0.037 C 
ATOM     10  C   UNL     1       0.055   1.751   0.745  1.00  0.00     0.141 C 
ATOM     11  C   UNL     1       1.530   1.571   0.955  1.00  0.00     0.009 C 
ATOM     12  C   UNL     1       2.226   0.441   0.700  1.00  0.00    -0.012 C 
ATOM     13  C   UNL     1       1.560  -0.826   0.134  1.00  0.00     0.117 C 
ENDROOT
BRANCH  10  14
ATOM     14  O   UNL     1      -0.098   2.625  -0.359  1.00  0.00    -0.389 OA
ATOM     15  H   UNL     1       0.303   3.477  -0.122  1.00  0.00     0.211 HD
ENDBRANCH  10  14
BRANCH  13  16
ATOM     16  O   UNL     1       1.399  -1.721   1.263  1.00  0.00    -0.382 OA
ATOM     17  H   UNL     1       1.144  -1.185   2.032  1.00  0.00     0.211 HD
ENDBRANCH  13  16
BRANCH  13  18
ATOM     18  C   UNL     1       2.463  -1.606  -0.878  1.00  0.00     0.196 C 
BRANCH  18  19
ATOM     19  O   UNL     1       3.445  -2.393  -0.192  1.00  0.00    -0.393 OA
ATOM     20  H   UNL     1       2.977  -2.716   0.605  1.00  0.00     0.210 HD
ENDBRANCH  18  19
ENDBRANCH  13  18
BRANCH  12  21
ATOM     21  C   UNL     1       3.705   0.415   0.995  1.00  0.00     0.190 C 
BRANCH  21  22
ATOM     22  O   UNL     1       4.425   0.763  -0.176  1.00  0.00    -0.392 OA
ATOM     23  H   UNL     1       3.987   1.533  -0.573  1.00  0.00     0.211 HD
ENDBRANCH  21  22
ENDBRANCH  12  21
TORSDOF 6
