REMARK SMILES COc1cc(O)c2c(O)c3c(cc2c1O)C[C@@H](C)OC3=O
REMARK SMILES IDX 3 1 4 2 5 3 7 4 8 5 10 6 11 7 12 8 13 9 14 10 16 11 17 12
REMARK SMILES IDX 18 13 19 14 20 15 21 16 2 17 1 18 15 19 6 21 9 23
REMARK H PARENT 15 20 6 22 9 24
ROOT
ATOM      1  C   UNL     1       3.313   0.307  -0.566  1.00  0.00     0.164 A 
ATOM      2  C   UNL     1       3.410  -0.231   0.708  1.00  0.00     0.097 A 
ATOM      3  C   UNL     1       2.246  -0.584   1.396  1.00  0.00     0.131 A 
ATOM      4  C   UNL     1       0.946  -0.416   0.849  1.00  0.00     0.070 A 
ATOM      5  C   UNL     1      -0.261  -0.768   1.514  1.00  0.00     0.142 A 
ATOM      6  C   UNL     1      -1.517  -0.561   0.918  1.00  0.00     0.105 A 
ATOM      7  C   UNL     1      -1.593  -0.013  -0.364  1.00  0.00    -0.025 A 
ATOM      8  C   UNL     1      -0.415   0.319  -1.040  1.00  0.00     0.018 A 
ATOM      9  C   UNL     1       0.854   0.134  -0.451  1.00  0.00     0.035 A 
ATOM     10  C   UNL     1       2.040   0.483  -1.129  1.00  0.00     0.166 A 
ATOM     11  C   UNL     1      -2.935   0.164  -1.013  1.00  0.00     0.081 C 
ATOM     12  C   UNL     1      -3.950   0.476   0.079  1.00  0.00     0.178 C 
ATOM     13  C   UNL     1      -5.361   0.562  -0.487  1.00  0.00     0.053 C 
ATOM     14  O   UNL     1      -3.943  -0.563   1.078  1.00  0.00    -0.459 OA
ATOM     15  C   UNL     1      -2.764  -0.953   1.624  1.00  0.00     0.342 C 
ATOM     16  O   UNL     1      -2.704  -1.616   2.654  1.00  0.00    -0.246 OA
ENDROOT
BRANCH   1  17
ATOM     17  O   UNL     1       4.359   0.700  -1.362  1.00  0.00    -0.493 OA
ATOM     18  C   UNL     1       5.665   0.530  -0.820  1.00  0.00     0.278 C 
ENDBRANCH   1  17
BRANCH  10  19
ATOM     19  O   UNL     1       1.962   1.020  -2.396  1.00  0.00    -0.504 OA
ATOM     20  H   UNL     1       2.890   1.176  -2.660  1.00  0.00     0.293 HD
ENDBRANCH  10  19
BRANCH   3  21
ATOM     21  O   UNL     1       2.444  -1.109   2.650  1.00  0.00    -0.507 OA
ATOM     22  H   UNL     1       1.555  -1.315   3.010  1.00  0.00     0.293 HD
ENDBRANCH   3  21
BRANCH   5  23
ATOM     23  O   UNL     1      -0.148  -1.327   2.774  1.00  0.00    -0.506 OA
ATOM     24  H   UNL     1      -1.045  -1.609   3.073  1.00  0.00     0.293 HD
ENDBRANCH   5  23
TORSDOF 4
