REMARK SMILES CC(=O)c1c(O)cc(O)c(C(C)=O)c1O
REMARK SMILES IDX 4 1 5 2 7 3 8 4 10 5 14 6 2 7 3 8 1 9 6 10 15 12 11 14 13 15
REMARK SMILES IDX 12 16 9 17
REMARK H PARENT 6 11 15 13 9 18
ROOT
ATOM      1  C   UNL     1      -1.344   0.210   0.253  1.00  0.00     0.102 A 
ATOM      2  C   UNL     1      -1.094   1.561   0.552  1.00  0.00     0.133 A 
ATOM      3  C   UNL     1       0.187   2.099   0.456  1.00  0.00     0.094 A 
ATOM      4  C   UNL     1       1.256   1.286   0.085  1.00  0.00     0.133 A 
ATOM      5  C   UNL     1       1.058  -0.077  -0.175  1.00  0.00     0.102 A 
ATOM      6  C   UNL     1      -0.256  -0.605  -0.104  1.00  0.00     0.144 A 
ENDROOT
BRANCH   1   7
ATOM      7  C   UNL     1      -2.754  -0.278   0.334  1.00  0.00     0.167 C 
ATOM      8  O   UNL     1      -3.559   0.376   1.005  1.00  0.00    -0.294 OA
ATOM      9  C   UNL     1      -3.196  -1.507  -0.414  1.00  0.00     0.094 C 
ENDBRANCH   1   7
BRANCH   2  10
ATOM     10  O   UNL     1      -2.070   2.441   0.943  1.00  0.00    -0.507 OA
ATOM     11  H   UNL     1      -2.893   1.927   1.114  1.00  0.00     0.293 HD
ENDBRANCH   2  10
BRANCH   6  12
ATOM     12  O   UNL     1      -0.489  -1.938  -0.348  1.00  0.00    -0.506 OA
ATOM     13  H   UNL     1       0.324  -2.339  -0.738  1.00  0.00     0.293 HD
ENDBRANCH   6  12
BRANCH   5  14
ATOM     14  C   UNL     1       2.182  -0.997  -0.530  1.00  0.00     0.167 C 
ATOM     15  O   UNL     1       1.909  -2.048  -1.117  1.00  0.00    -0.294 OA
ATOM     16  C   UNL     1       3.600  -0.673  -0.146  1.00  0.00     0.094 C 
ENDBRANCH   5  14
BRANCH   4  17
ATOM     17  O   UNL     1       2.492   1.856  -0.037  1.00  0.00    -0.507 OA
ATOM     18  H   UNL     1       2.434   2.811   0.146  1.00  0.00     0.293 HD
ENDBRANCH   4  17
TORSDOF 5
