REMARK SMILES COc1cc(-c2ccc(O)cc2)c(OC)c(O)c1C1=CC(=O)OC1CC(=O)O
REMARK SMILES IDX 19 1 20 2 21 3 22 4 23 5 24 6 18 7 3 8 4 9 5 10 16 11 13 12
REMARK SMILES IDX 2 13 1 14 6 15 7 16 12 17 8 18 11 19 9 20 10 21 17 23 14 25
REMARK SMILES IDX 15 26 25 27 26 28 27 29 28 30
REMARK H PARENT 10 22 17 24 28 31
ROOT
ATOM      1  C   UNL     1       2.840  -0.616   0.604  1.00  0.00     0.015 C 
ATOM      2  C   UNL     1       3.513  -1.757   0.759  1.00  0.00     0.101 C 
ATOM      3  C   UNL     1       4.927  -1.413   0.829  1.00  0.00     0.331 C 
ATOM      4  O   UNL     1       5.833  -2.215   0.961  1.00  0.00    -0.247 OA
ATOM      5  O   UNL     1       5.068  -0.066   0.716  1.00  0.00    -0.454 OA
ATOM      6  C   UNL     1       3.770   0.549   0.600  1.00  0.00     0.219 C 
ENDROOT
BRANCH   1   7
ATOM      7  C   UNL     1       1.374  -0.508   0.475  1.00  0.00     0.069 A 
ATOM      8  C   UNL     1       0.627   0.442   1.205  1.00  0.00     0.131 A 
ATOM      9  C   UNL     1      -0.765   0.535   1.026  1.00  0.00     0.060 A 
ATOM     10  C   UNL     1      -1.464  -0.303   0.136  1.00  0.00     0.031 A 
ATOM     11  C   UNL     1       0.677  -1.334  -0.423  1.00  0.00     0.169 A 
ATOM     12  C   UNL     1      -0.717  -1.259  -0.566  1.00  0.00     0.169 A 
BRANCH   8  13
ATOM     13  O   UNL     1       1.330   1.228   2.082  1.00  0.00    -0.496 OA
ATOM     14  C   UNL     1       0.636   2.261   2.771  1.00  0.00     0.278 C 
ENDBRANCH   8  13
BRANCH  10  15
ATOM     15  C   UNL     1      -2.918  -0.132  -0.039  1.00  0.00    -0.014 A 
ATOM     16  C   UNL     1      -3.471   0.124  -1.306  1.00  0.00     0.012 A 
ATOM     17  C   UNL     1      -3.792  -0.213   1.060  1.00  0.00     0.012 A 
ATOM     18  C   UNL     1      -4.849   0.291  -1.474  1.00  0.00     0.047 A 
ATOM     19  C   UNL     1      -5.169  -0.046   0.895  1.00  0.00     0.047 A 
ATOM     20  C   UNL     1      -5.686   0.204  -0.368  1.00  0.00     0.115 A 
BRANCH  20  21
ATOM     21  O   UNL     1      -7.035   0.360  -0.483  1.00  0.00    -0.508 OA
ATOM     22  H   UNL     1      -7.250   0.531  -1.415  1.00  0.00     0.293 HD
ENDBRANCH  20  21
ENDBRANCH  10  15
BRANCH  11  23
ATOM     23  O   UNL     1       1.360  -2.227  -1.216  1.00  0.00    -0.504 OA
ATOM     24  H   UNL     1       0.703  -2.585  -1.844  1.00  0.00     0.293 HD
ENDBRANCH  11  23
BRANCH  12  25
ATOM     25  O   UNL     1      -1.295  -2.122  -1.472  1.00  0.00    -0.492 OA
ATOM     26  C   UNL     1      -1.862  -3.246  -0.791  1.00  0.00     0.278 C 
ENDBRANCH  12  25
ENDBRANCH   1   7
BRANCH   6  27
ATOM     27  C   UNL     1       3.726   1.351  -0.697  1.00  0.00     0.172 C 
BRANCH  27  28
ATOM     28  C   UNL     1       4.451   2.652  -0.521  1.00  0.00     0.307 C 
ATOM     29  O   UNL     1       4.509   3.335   0.487  1.00  0.00    -0.252 OA
BRANCH  28  30
ATOM     30  O   UNL     1       5.023   3.078  -1.665  1.00  0.00    -0.481 OA
ATOM     31  H   UNL     1       5.454   3.923  -1.419  1.00  0.00     0.296 HD
ENDBRANCH  28  30
ENDBRANCH  27  28
ENDBRANCH   6  27
TORSDOF 9
