REMARK SMILES Cn1c(=O)c2c(nc(NCc3cccnc3)n2Cc2ccc(Cl)cc2)n(C)c1=O
REMARK SMILES IDX 1 1 2 2 3 3 4 4 5 5 6 6 7 7 8 8 17 9 26 10 27 11 28 12 29 13
REMARK SMILES IDX 18 14 19 15 20 16 25 17 21 18 24 19 22 20 23 21 9 22 10 24
REMARK SMILES IDX 11 25 12 26 16 27 13 28 15 29 14 30
REMARK H PARENT 9 23
ROOT
ATOM      1  C   UNL     1      -4.924  -2.416   0.841  1.00  0.00     0.159 C 
ATOM      2  N   UNL     1      -3.537  -2.293   0.439  1.00  0.00    -0.261 N 
ATOM      3  C   UNL     1      -2.840  -1.150   0.844  1.00  0.00     0.282 C 
ATOM      4  O   UNL     1      -3.324  -0.267   1.546  1.00  0.00    -0.267 OA
ATOM      5  C   UNL     1      -1.494  -1.130   0.386  1.00  0.00     0.154 A 
ATOM      6  C   UNL     1      -0.935  -2.159  -0.309  1.00  0.00     0.170 A 
ATOM      7  N   UNL     1       0.369  -1.924  -0.614  1.00  0.00    -0.194 NA
ATOM      8  C   UNL     1       0.624  -0.744  -0.096  1.00  0.00     0.206 A 
ATOM      9  N   UNL     1      -0.501  -0.188   0.482  1.00  0.00    -0.300 N 
ATOM     10  N   UNL     1      -1.644  -3.292  -0.630  1.00  0.00    -0.279 N 
ATOM     11  C   UNL     1      -1.001  -4.373  -1.354  1.00  0.00     0.157 C 
ATOM     12  C   UNL     1      -2.980  -3.394  -0.243  1.00  0.00     0.332 C 
ATOM     13  O   UNL     1      -3.650  -4.404  -0.477  1.00  0.00    -0.247 OA
ENDROOT
BRANCH   9  14
ATOM     14  C   UNL     1      -0.616   1.146   1.048  1.00  0.00     0.161 C 
BRANCH  14  15
ATOM     15  C   UNL     1      -1.155   2.139   0.045  1.00  0.00    -0.028 A 
ATOM     16  C   UNL     1      -2.482   2.587   0.124  1.00  0.00     0.007 A 
ATOM     17  C   UNL     1      -0.336   2.630  -0.985  1.00  0.00     0.007 A 
ATOM     18  C   UNL     1      -2.981   3.502  -0.807  1.00  0.00     0.021 A 
ATOM     19  C   UNL     1      -0.835   3.545  -1.916  1.00  0.00     0.021 A 
ATOM     20  C   UNL     1      -2.156   3.976  -1.824  1.00  0.00     0.041 A 
ATOM     21  Cl  UNL     1      -2.771   5.101  -2.970  1.00  0.00    -0.084 Cl
ENDBRANCH  14  15
ENDBRANCH   9  14
BRANCH   8  22
ATOM     22  N   UNL     1       1.813  -0.101  -0.157  1.00  0.00    -0.351 N 
ATOM     23  H   UNL     1       2.332  -0.438  -0.970  1.00  0.00     0.163 HD
BRANCH  22  24
ATOM     24  C   UNL     1       2.686  -0.302   1.000  1.00  0.00     0.153 C 
BRANCH  24  25
ATOM     25  C   UNL     1       3.946   0.494   0.813  1.00  0.00    -0.010 A 
ATOM     26  C   UNL     1       5.141  -0.103   0.399  1.00  0.00     0.009 A 
ATOM     27  C   UNL     1       3.957   1.870   1.020  1.00  0.00     0.116 A 
ATOM     28  C   UNL     1       6.280   0.679   0.229  1.00  0.00     0.020 A 
ATOM     29  N   UNL     1       5.049   2.652   0.867  1.00  0.00    -0.264 NA
ATOM     30  C   UNL     1       6.186   2.039   0.475  1.00  0.00     0.111 A 
ENDBRANCH  24  25
ENDBRANCH  22  24
ENDBRANCH   8  22
TORSDOF 5
