REMARK SMILES CC1=C(CO)C(=O)OC([C@@H](C)C2CC[C@H]3C4C[C@H]5O[C@]56[C@@H](O)C=CC(=O)[C@]6(C)C4CC[C@]23C)C1
REMARK SMILES IDX 1 1 2 2 3 3 6 4 7 5 8 6 9 7 34 8 4 9 5 10 10 12 11 13 12 14
REMARK SMILES IDX 13 15 32 16 14 17 31 18 15 19 30 20 16 21 29 22 17 23 27 24
REMARK SMILES IDX 18 25 25 26 20 27 19 28 24 29 26 30 21 31 23 32 33 33 28 34
REMARK SMILES IDX 22 35
REMARK H PARENT 5 11 22 36
ROOT
ATOM      1  C   UNL     1       6.550  -0.569   0.847  1.00  0.00     0.040 C 
ATOM      2  C   UNL     1       5.695   0.193  -0.125  1.00  0.00    -0.057 C 
ATOM      3  C   UNL     1       5.850   1.499  -0.438  1.00  0.00     0.062 C 
ATOM      4  C   UNL     1       5.037   2.086  -1.544  1.00  0.00     0.336 C 
ATOM      5  O   UNL     1       5.361   3.135  -2.089  1.00  0.00    -0.246 OA
ATOM      6  O   UNL     1       3.945   1.388  -1.950  1.00  0.00    -0.458 OA
ATOM      7  C   UNL     1       3.438   0.326  -1.107  1.00  0.00     0.184 C 
ATOM      8  C   UNL     1       4.605  -0.611  -0.787  1.00  0.00     0.077 C 
ENDROOT
BRANCH   3   9
ATOM      9  C   UNL     1       6.829   2.464   0.169  1.00  0.00     0.199 C 
BRANCH   9  10
ATOM     10  O   UNL     1       6.902   2.286   1.582  1.00  0.00    -0.391 OA
ATOM     11  H   UNL     1       7.515   2.965   1.912  1.00  0.00     0.211 HD
ENDBRANCH   9  10
ENDBRANCH   3   9
BRANCH   7  12
ATOM     12  C   UNL     1       2.236  -0.313  -1.852  1.00  0.00     0.031 C 
ATOM     13  C   UNL     1       2.707  -1.258  -2.972  1.00  0.00     0.012 C 
BRANCH  12  14
ATOM     14  C   UNL     1       1.165  -1.027  -0.979  1.00  0.00     0.002 C 
ATOM     15  C   UNL     1       1.612  -1.646   0.372  1.00  0.00     0.005 C 
ATOM     16  C   UNL     1      -0.094  -0.194  -0.569  1.00  0.00    -0.026 C 
ATOM     17  C   UNL     1       0.347  -1.734   1.253  1.00  0.00     0.005 C 
ATOM     18  C   UNL     1      -1.066   0.141  -1.711  1.00  0.00     0.007 C 
ATOM     19  C   UNL     1      -0.771  -1.258   0.336  1.00  0.00    -0.001 C 
ATOM     20  C   UNL     1      -2.459   0.550  -1.182  1.00  0.00     0.005 C 
ATOM     21  C   UNL     1      -2.152  -0.915   0.914  1.00  0.00    -0.001 C 
ATOM     22  C   UNL     1      -3.091  -0.535  -0.269  1.00  0.00     0.009 C 
ATOM     23  C   UNL     1      -2.130   0.090   2.066  1.00  0.00     0.039 C 
ATOM     24  C   UNL     1      -4.574  -0.279   0.195  1.00  0.00     0.068 C 
ATOM     25  C   UNL     1      -3.464   0.660   2.394  1.00  0.00     0.155 C 
ATOM     26  C   UNL     1      -5.279  -1.643   0.438  1.00  0.00     0.164 C 
ATOM     27  C   UNL     1      -4.664   0.528   1.484  1.00  0.00     0.137 C 
ATOM     28  O   UNL     1      -3.881   1.728   1.522  1.00  0.00    -0.362 OA
ATOM     29  C   UNL     1      -6.487  -1.673   1.312  1.00  0.00     0.046 C 
ATOM     30  O   UNL     1      -4.936  -2.697  -0.095  1.00  0.00    -0.294 OA
ATOM     31  C   UNL     1      -6.023   0.643   2.133  1.00  0.00     0.173 C 
ATOM     32  C   UNL     1      -6.834  -0.609   2.048  1.00  0.00     0.011 C 
ATOM     33  C   UNL     1       0.334   1.124   0.115  1.00  0.00     0.012 C 
ATOM     34  C   UNL     1      -5.384   0.399  -0.934  1.00  0.00     0.024 C 
BRANCH  31  35
ATOM     35  O   UNL     1      -6.769   1.683   1.518  1.00  0.00    -0.386 OA
ATOM     36  H   UNL     1      -6.155   2.437   1.435  1.00  0.00     0.211 HD
ENDBRANCH  31  35
ENDBRANCH  12  14
ENDBRANCH   7  12
TORSDOF 5
