REMARK SMILES Cc1cc(C(O)C(O)CO)c(Cc2ccc(NC3CC(=O)OC3/C=C/C(C)O)cc2)o1
REMARK SMILES IDX 13 1 14 2 15 3 16 4 29 5 30 6 12 7 11 8 2 9 3 10 31 11 4 12
REMARK SMILES IDX 1 13 5 14 6 15 7 17 8 18 9 20 10 21 17 23 18 25 19 26 23 27
REMARK SMILES IDX 20 28 22 29 21 30 24 31 25 32 26 33 27 34 28 35
REMARK H PARENT 6 16 8 19 10 22 17 24 28 36
ROOT
ATOM      1  C   UNL     1      -1.158  -0.647   1.547  1.00  0.00    -0.040 A 
ATOM      2  C   UNL     1      -0.378   0.435   1.968  1.00  0.00     0.006 A 
ATOM      3  C   UNL     1       0.971   0.259   2.299  1.00  0.00     0.026 A 
ATOM      4  C   UNL     1       1.586  -0.991   2.183  1.00  0.00     0.034 A 
ATOM      5  C   UNL     1       0.784  -2.079   1.810  1.00  0.00     0.026 A 
ATOM      6  C   UNL     1      -0.564  -1.910   1.477  1.00  0.00     0.006 A 
ENDROOT
BRANCH   1   7
ATOM      7  C   UNL     1      -2.604  -0.449   1.153  1.00  0.00     0.111 C 
BRANCH   7   8
ATOM      8  C   UNL     1      -2.762   0.036  -0.248  1.00  0.00     0.114 A 
ATOM      9  C   UNL     1      -2.606  -0.230  -2.421  1.00  0.00     0.101 A 
ATOM     10  C   UNL     1      -3.058   1.053  -2.219  1.00  0.00     0.052 A 
ATOM     11  O   UNL     1      -2.445  -0.859  -1.228  1.00  0.00    -0.466 OA
ATOM     12  C   UNL     1      -3.184   1.233  -0.809  1.00  0.00     0.025 A 
ATOM     13  C   UNL     1      -2.273  -1.017  -3.623  1.00  0.00     0.087 C 
BRANCH  12  14
ATOM     14  C   UNL     1      -3.673   2.466  -0.119  1.00  0.00     0.179 C 
BRANCH  14  15
ATOM     15  O   UNL     1      -2.839   2.791   1.006  1.00  0.00    -0.385 OA
ATOM     16  H   UNL     1      -3.372   3.421   1.532  1.00  0.00     0.211 HD
ENDBRANCH  14  15
BRANCH  14  17
ATOM     17  C   UNL     1      -5.128   2.346   0.392  1.00  0.00     0.173 C 
BRANCH  17  18
ATOM     18  O   UNL     1      -5.444   3.566   1.102  1.00  0.00    -0.388 OA
ATOM     19  H   UNL     1      -5.712   4.201   0.405  1.00  0.00     0.211 HD
ENDBRANCH  17  18
BRANCH  17  20
ATOM     20  C   UNL     1      -6.165   2.155  -0.718  1.00  0.00     0.190 C 
BRANCH  20  21
ATOM     21  O   UNL     1      -6.163   3.309  -1.561  1.00  0.00    -0.394 OA
ATOM     22  H   UNL     1      -6.842   3.158  -2.244  1.00  0.00     0.210 HD
ENDBRANCH  20  21
ENDBRANCH  17  20
ENDBRANCH  14  17
ENDBRANCH  12  14
ENDBRANCH   7   8
ENDBRANCH   1   7
BRANCH   4  23
ATOM     23  N   UNL     1       2.927  -1.235   2.521  1.00  0.00    -0.378 N 
ATOM     24  H   UNL     1       3.241  -2.104   2.093  1.00  0.00     0.161 HD
BRANCH  23  25
ATOM     25  C   UNL     1       3.904  -0.147   2.373  1.00  0.00     0.135 C 
ATOM     26  C   UNL     1       5.276  -0.588   2.835  1.00  0.00     0.151 C 
ATOM     27  C   UNL     1       4.178   0.328   0.939  1.00  0.00     0.222 C 
ATOM     28  C   UNL     1       6.158   0.355   2.080  1.00  0.00     0.308 C 
ATOM     29  O   UNL     1       5.507   0.866   0.996  1.00  0.00    -0.456 OA
ATOM     30  O   UNL     1       7.318   0.606   2.362  1.00  0.00    -0.252 OA
BRANCH  27  31
ATOM     31  C   UNL     1       4.158  -0.729  -0.140  1.00  0.00     0.018 C 
ATOM     32  C   UNL     1       3.234  -0.772  -1.117  1.00  0.00     0.003 C 
BRANCH  32  33
ATOM     33  C   UNL     1       3.111  -1.770  -2.231  1.00  0.00     0.134 C 
ATOM     34  C   UNL     1       4.168  -2.866  -2.281  1.00  0.00     0.043 C 
BRANCH  33  35
ATOM     35  O   UNL     1       3.159  -1.026  -3.444  1.00  0.00    -0.389 OA
ATOM     36  H   UNL     1       3.029  -1.654  -4.174  1.00  0.00     0.211 HD
ENDBRANCH  33  35
ENDBRANCH  32  33
ENDBRANCH  27  31
ENDBRANCH  23  25
ENDBRANCH   4  23
TORSDOF 13
