REMARK SMILES C=C(Oc1cccc(C(=O)O)c1)C(=O)OC
REMARK SMILES IDX 3 1 2 2 1 3 13 4 14 5 15 6 16 7 4 8 5 9 12 10 6 11 8 12 7 13
REMARK SMILES IDX 9 14 10 15 11 16
REMARK H PARENT 11 17
ROOT
ATOM      1  O   UNL     1       0.096   0.828  -1.615  1.00  0.00    -0.450 OA
ENDROOT
BRANCH   1   2
ATOM      2  C   UNL     1       1.478   0.721  -1.452  1.00  0.00     0.205 C 
ATOM      3  C   UNL     1       2.258   0.750  -2.543  1.00  0.00     0.068 C 
BRANCH   2   4
ATOM      4  C   UNL     1       2.068   0.703  -0.073  1.00  0.00     0.373 C 
ATOM      5  O   UNL     1       1.497   1.124   0.923  1.00  0.00    -0.243 OA
BRANCH   4   6
ATOM      6  O   UNL     1       3.309   0.144  -0.089  1.00  0.00    -0.463 OA
ATOM      7  C   UNL     1       3.927   0.078   1.197  1.00  0.00     0.282 C 
ENDBRANCH   4   6
ENDBRANCH   2   4
ENDBRANCH   1   2
BRANCH   1   8
ATOM      8  C   UNL     1      -0.700   0.021  -0.837  1.00  0.00     0.128 A 
ATOM      9  C   UNL     1      -0.508  -1.362  -0.766  1.00  0.00     0.047 A 
ATOM     10  C   UNL     1      -1.763   0.625  -0.166  1.00  0.00     0.062 A 
ATOM     11  C   UNL     1      -1.365  -2.141   0.011  1.00  0.00     0.005 A 
ATOM     12  C   UNL     1      -2.622  -0.156   0.615  1.00  0.00     0.063 A 
ATOM     13  C   UNL     1      -2.417  -1.540   0.704  1.00  0.00     0.016 A 
BRANCH  12  14
ATOM     14  C   UNL     1      -3.759   0.434   1.361  1.00  0.00     0.335 C 
ATOM     15  O   UNL     1      -4.534  -0.174   2.075  1.00  0.00    -0.246 OA
BRANCH  14  16
ATOM     16  O   UNL     1      -3.877   1.760   1.173  1.00  0.00    -0.478 OA
ATOM     17  H   UNL     1      -4.649   2.008   1.723  1.00  0.00     0.297 HD
ENDBRANCH  14  16
ENDBRANCH  12  14
ENDBRANCH   1   8
TORSDOF 6
