REMARK SMILES COC(=O)CCC(=O)OC[C@]1(C)CCC[C@@]2(C)C3CC[C@]4(C)C=CC3(CCC12)C4
REMARK SMILES IDX 7 1 8 2 6 3 5 4 3 5 4 6 2 7 1 8 9 9 10 10 11 11 13 12 28 13
REMARK SMILES IDX 14 14 27 15 16 16 15 17 26 18 18 19 25 20 19 21 24 22 29 23
REMARK SMILES IDX 20 24 23 25 21 26 12 27 17 28 22 29
REMARK H PARENT
ROOT
ATOM      1  C   UNL     1       4.412   1.631  -1.587  1.00  0.00     0.306 C 
ATOM      2  O   UNL     1       4.349   1.170  -2.718  1.00  0.00    -0.252 OA
ENDROOT
BRANCH   1   3
ATOM      3  C   UNL     1       5.649   2.264  -1.003  1.00  0.00     0.134 C 
BRANCH   3   4
ATOM      4  C   UNL     1       6.085   1.583   0.282  1.00  0.00     0.134 C 
BRANCH   4   5
ATOM      5  C   UNL     1       6.535   0.173   0.004  1.00  0.00     0.306 C 
ATOM      6  O   UNL     1       7.668  -0.126  -0.345  1.00  0.00    -0.252 OA
BRANCH   5   7
ATOM      7  O   UNL     1       5.500  -0.695   0.162  1.00  0.00    -0.469 OA
ATOM      8  C   UNL     1       5.827  -2.052  -0.139  1.00  0.00     0.282 C 
ENDBRANCH   5   7
ENDBRANCH   4   5
ENDBRANCH   3   4
ENDBRANCH   1   3
BRANCH   1   9
ATOM      9  O   UNL     1       3.389   1.665  -0.693  1.00  0.00    -0.465 OA
BRANCH   9  10
ATOM     10  C   UNL     1       2.181   1.026  -1.139  1.00  0.00     0.239 C 
BRANCH  10  11
ATOM     11  C   UNL     1       1.179   0.877   0.051  1.00  0.00     0.005 C 
ATOM     12  C   UNL     1       1.871   0.026   1.138  1.00  0.00     0.010 C 
ATOM     13  C   UNL     1      -0.111   0.126  -0.449  1.00  0.00     0.005 C 
ATOM     14  C   UNL     1       1.007  -0.280   2.352  1.00  0.00     0.001 C 
ATOM     15  C   UNL     1      -0.993   1.002  -1.368  1.00  0.00     0.006 C 
ATOM     16  C   UNL     1      -0.950  -0.635   0.667  1.00  0.00    -0.025 C 
ATOM     17  C   UNL     1      -0.494  -0.249   2.099  1.00  0.00     0.007 C 
ATOM     18  C   UNL     1      -2.124   0.183  -1.981  1.00  0.00     0.012 C 
ATOM     19  C   UNL     1      -2.487  -0.294   0.537  1.00  0.00     0.005 C 
ATOM     20  C   UNL     1      -3.057  -0.403  -0.918  1.00  0.00    -0.008 C 
ATOM     21  C   UNL     1      -3.422  -0.997   1.567  1.00  0.00     0.006 C 
ATOM     22  C   UNL     1      -3.542  -1.801  -1.268  1.00  0.00    -0.024 C 
ATOM     23  C   UNL     1      -4.434   0.303  -0.911  1.00  0.00     0.022 C 
ATOM     24  C   UNL     1      -4.923  -0.726   1.317  1.00  0.00     0.011 C 
ATOM     25  C   UNL     1      -4.804  -1.984  -0.851  1.00  0.00    -0.024 C 
ATOM     26  C   UNL     1      -5.306  -0.729  -0.179  1.00  0.00    -0.014 C 
ATOM     27  C   UNL     1       0.886   2.294   0.592  1.00  0.00     0.015 C 
ATOM     28  C   UNL     1      -0.696  -2.157   0.501  1.00  0.00     0.012 C 
ATOM     29  C   UNL     1      -6.792  -0.479  -0.395  1.00  0.00     0.016 C 
ENDBRANCH  10  11
ENDBRANCH   9  10
ENDBRANCH   1   9
TORSDOF 7
