REMARK SMILES COc1cc(CCc2ccc3c(c2)OCO3)oc(=O)c1
REMARK SMILES IDX 3 1 4 2 5 3 17 4 18 5 19 6 20 7 2 8 1 9 6 10 7 11 8 12 9 13
REMARK SMILES IDX 13 14 10 15 12 16 11 17 14 18 16 19 15 20
REMARK H PARENT
ROOT
ATOM      1  C   UNL     1      -3.790  -0.079  -1.497  1.00  0.00     0.129 C 
ATOM      2  C   UNL     1      -2.726   0.136  -0.554  1.00  0.00     0.089 C 
ATOM      3  C   UNL     1      -1.566  -0.519  -0.691  1.00  0.00     0.112 C 
ATOM      4  O   UNL     1      -1.365  -1.440  -1.748  1.00  0.00    -0.428 OA
ATOM      5  C   UNL     1      -2.351  -1.675  -2.665  1.00  0.00     0.339 C 
ATOM      6  O   UNL     1      -2.209  -2.462  -3.595  1.00  0.00    -0.246 OA
ATOM      7  C   UNL     1      -3.618  -0.942  -2.507  1.00  0.00     0.140 C 
ENDROOT
BRANCH   1   8
ATOM      8  O   UNL     1      -4.905   0.672  -1.221  1.00  0.00    -0.496 OA
ATOM      9  C   UNL     1      -6.023   0.536  -2.091  1.00  0.00     0.278 C 
ENDBRANCH   1   8
BRANCH   3  10
ATOM     10  C   UNL     1      -0.399  -0.377   0.246  1.00  0.00     0.080 C 
BRANCH  10  11
ATOM     11  C   UNL     1       0.798   0.293  -0.435  1.00  0.00     0.043 C 
BRANCH  11  12
ATOM     12  C   UNL     1       1.956   0.461   0.519  1.00  0.00    -0.044 A 
ATOM     13  C   UNL     1       2.092   1.651   1.270  1.00  0.00     0.008 A 
ATOM     14  C   UNL     1       2.889  -0.575   0.685  1.00  0.00     0.054 A 
ATOM     15  C   UNL     1       3.148   1.815   2.172  1.00  0.00     0.051 A 
ATOM     16  C   UNL     1       3.919  -0.384   1.582  1.00  0.00     0.166 A 
ATOM     17  C   UNL     1       4.045   0.779   2.304  1.00  0.00     0.165 A 
ATOM     18  O   UNL     1       4.905  -1.278   1.862  1.00  0.00    -0.454 OA
ATOM     19  O   UNL     1       5.126   0.763   3.130  1.00  0.00    -0.454 OA
ATOM     20  C   UNL     1       5.668  -0.542   2.841  1.00  0.00     0.468 C 
ENDBRANCH  11  12
ENDBRANCH  10  11
ENDBRANCH   3  10
TORSDOF 4
