REMARK SMILES CC(CCOC(=O)CCC(=O)O)CCC1(C)C(C)CCC2(C)C1CC(O)C(O)C2(C)O
REMARK SMILES IDX 4 1 3 2 2 3 1 4 13 5 14 6 15 7 17 8 23 9 19 10 21 11 24 12
REMARK SMILES IDX 20 13 29 14 25 15 27 16 16 17 18 18 22 19 30 20 31 21 26 23
REMARK SMILES IDX 28 25 5 27 6 28 7 29 8 30 9 31 10 32 11 33 12 34
REMARK H PARENT 31 22 26 24 28 26 12 35
ROOT
ATOM      1  C   UNL     1       4.295  -1.743   1.424  1.00  0.00     0.233 C 
ENDROOT
BRANCH   1   2
ATOM      2  C   UNL     1       3.205  -0.683   1.268  1.00  0.00     0.045 C 
BRANCH   2   3
ATOM      3  C   UNL     1       1.882  -1.036   1.977  1.00  0.00    -0.011 C 
ATOM      4  C   UNL     1       2.063  -1.120   3.496  1.00  0.00     0.008 C 
BRANCH   3   5
ATOM      5  C   UNL     1       0.807   0.006   1.586  1.00  0.00     0.004 C 
BRANCH   5   6
ATOM      6  C   UNL     1      -0.596  -0.332   2.122  1.00  0.00     0.007 C 
BRANCH   6   7
ATOM      7  C   UNL     1      -1.799   0.501   1.533  1.00  0.00    -0.026 C 
ATOM      8  C   UNL     1      -1.508   2.035   1.594  1.00  0.00    -0.008 C 
ATOM      9  C   UNL     1      -2.052   0.039   0.012  1.00  0.00     0.007 C 
ATOM     10  C   UNL     1      -2.627   2.881   0.958  1.00  0.00     0.004 C 
ATOM     11  C   UNL     1      -2.633   1.149  -0.972  1.00  0.00     0.002 C 
ATOM     12  C   UNL     1      -2.799  -1.316  -0.094  1.00  0.00     0.039 C 
ATOM     13  C   UNL     1      -3.416   2.204  -0.164  1.00  0.00     0.010 C 
ATOM     14  C   UNL     1      -3.545   0.498  -2.105  1.00  0.00     0.096 C 
ATOM     15  C   UNL     1      -4.301  -1.150  -0.261  1.00  0.00     0.146 C 
ATOM     16  C   UNL     1      -4.687  -0.395  -1.541  1.00  0.00     0.175 C 
ATOM     17  C   UNL     1      -3.005   0.186   2.464  1.00  0.00     0.012 C 
ATOM     18  C   UNL     1      -1.204   2.600   2.993  1.00  0.00     0.008 C 
ATOM     19  C   UNL     1      -1.436   1.868  -1.673  1.00  0.00     0.015 C 
ATOM     20  C   UNL     1      -4.138   1.509  -3.109  1.00  0.00     0.045 C 
BRANCH  14  21
ATOM     21  O   UNL     1      -2.712  -0.397  -2.886  1.00  0.00    -0.387 OA
ATOM     22  H   UNL     1      -2.234   0.130  -3.549  1.00  0.00     0.211 HD
ENDBRANCH  14  21
BRANCH  15  23
ATOM     23  O   UNL     1      -4.944  -2.432  -0.253  1.00  0.00    -0.390 OA
ATOM     24  H   UNL     1      -4.506  -2.979  -0.930  1.00  0.00     0.211 HD
ENDBRANCH  15  23
BRANCH  16  25
ATOM     25  O   UNL     1      -5.887   0.348  -1.282  1.00  0.00    -0.387 OA
ATOM     26  H   UNL     1      -6.529  -0.297  -0.929  1.00  0.00     0.211 HD
ENDBRANCH  16  25
ENDBRANCH   6   7
ENDBRANCH   5   6
ENDBRANCH   3   5
ENDBRANCH   2   3
ENDBRANCH   1   2
BRANCH   1  27
ATOM     27  O   UNL     1       5.453  -1.367   0.659  1.00  0.00    -0.466 OA
BRANCH  27  28
ATOM     28  C   UNL     1       5.462  -1.766  -0.644  1.00  0.00     0.306 C 
ATOM     29  O   UNL     1       4.572  -2.395  -1.197  1.00  0.00    -0.252 OA
BRANCH  28  30
ATOM     30  C   UNL     1       6.737  -1.307  -1.301  1.00  0.00     0.134 C 
BRANCH  30  31
ATOM     31  C   UNL     1       6.789  -1.733  -2.762  1.00  0.00     0.134 C 
BRANCH  31  32
ATOM     32  C   UNL     1       8.060  -1.270  -3.410  1.00  0.00     0.303 C 
ATOM     33  O   UNL     1       8.962  -0.634  -2.893  1.00  0.00    -0.252 OA
BRANCH  32  34
ATOM     34  O   UNL     1       8.132  -1.639  -4.703  1.00  0.00    -0.481 OA
ATOM     35  H   UNL     1       8.993  -1.285  -5.010  1.00  0.00     0.296 HD
ENDBRANCH  32  34
ENDBRANCH  31  32
ENDBRANCH  30  31
ENDBRANCH  28  30
ENDBRANCH  27  28
ENDBRANCH   1  27
TORSDOF 14
