REMARK SMILES O=C(CSc1nnc[nH]1)NCCOc1ccccc1
REMARK SMILES IDX 1 1 2 2 10 3 3 5 4 6 5 7 6 8 9 9 7 10 8 11 11 13 12 14 13 15
REMARK SMILES IDX 14 16 15 17 19 18 16 19 18 20 17 21
REMARK H PARENT 10 4 9 12
ROOT
ATOM      1  O   UNL     1       0.468   1.154   0.549  1.00  0.00    -0.274 OA
ATOM      2  C   UNL     1       1.240   0.499  -0.146  1.00  0.00     0.230 C 
ATOM      3  N   UNL     1       0.814  -0.489  -1.013  1.00  0.00    -0.352 N 
ATOM      4  H   UNL     1       1.504  -1.123  -1.397  1.00  0.00     0.163 HD
ENDROOT
BRANCH   2   5
ATOM      5  C   UNL     1       2.743   0.704  -0.122  1.00  0.00     0.178 C 
BRANCH   5   6
ATOM      6  S   UNL     1       3.474  -0.431   1.094  1.00  0.00    -0.076 SA
BRANCH   6   7
ATOM      7  C   UNL     1       5.137  -0.065   0.873  1.00  0.00     0.188 A 
ATOM      8  N   UNL     1       5.703   0.630  -0.082  1.00  0.00    -0.124 NA
ATOM      9  N   UNL     1       6.078  -0.517   1.744  1.00  0.00    -0.323 N 
ATOM     10  N   UNL     1       7.059   0.639   0.169  1.00  0.00    -0.138 NA
ATOM     11  C   UNL     1       7.266  -0.052   1.268  1.00  0.00     0.223 A 
ATOM     12  H   UNL     1       5.915  -1.073   2.568  1.00  0.00     0.170 HD
ENDBRANCH   6   7
ENDBRANCH   5   6
ENDBRANCH   2   5
BRANCH   3  13
ATOM     13  C   UNL     1      -0.581  -0.887  -1.064  1.00  0.00     0.157 C 
BRANCH  13  14
ATOM     14  C   UNL     1      -1.480   0.141  -1.758  1.00  0.00     0.250 C 
BRANCH  14  15
ATOM     15  O   UNL     1      -2.824  -0.338  -1.850  1.00  0.00    -0.492 OA
BRANCH  15  16
ATOM     16  C   UNL     1      -3.665  -0.117  -0.795  1.00  0.00     0.119 A 
ATOM     17  C   UNL     1      -3.336   0.499   0.414  1.00  0.00     0.046 A 
ATOM     18  C   UNL     1      -4.970  -0.578  -0.990  1.00  0.00     0.046 A 
ATOM     19  C   UNL     1      -4.304   0.652   1.411  1.00  0.00     0.004 A 
ATOM     20  C   UNL     1      -5.938  -0.425   0.005  1.00  0.00     0.004 A 
ATOM     21  C   UNL     1      -5.604   0.191   1.208  1.00  0.00     0.000 A 
ENDBRANCH  15  16
ENDBRANCH  14  15
ENDBRANCH  13  14
ENDBRANCH   3  13
TORSDOF 7
