REMARK SMILES C=CC(C)(C)c1[nH]c2ccccc2c1C[C@@H]1NC(=O)[C@H](C)NC1=O
REMARK SMILES IDX 6 1 7 2 8 3 9 4 10 5 11 6 12 7 13 8 14 9 3 11 4 12 5 13 2 14
REMARK SMILES IDX 1 15 15 16 16 17 17 18 23 19 18 20 22 21 24 22 19 23 20 24
REMARK SMILES IDX 21 27
REMARK H PARENT 7 10 17 25 22 26
ROOT
ATOM      1  C   UNL     1      -1.506   0.164   0.117  1.00  0.00     0.029 A 
ATOM      2  N   UNL     1      -2.652  -0.540   0.438  1.00  0.00    -0.357 N 
ATOM      3  C   UNL     1      -2.483  -1.889   0.277  1.00  0.00     0.046 A 
ATOM      4  C   UNL     1      -3.384  -2.940   0.486  1.00  0.00     0.026 A 
ATOM      5  C   UNL     1      -2.942  -4.236   0.209  1.00  0.00     0.002 A 
ATOM      6  C   UNL     1      -1.654  -4.465  -0.265  1.00  0.00     0.001 A 
ATOM      7  C   UNL     1      -0.769  -3.399  -0.467  1.00  0.00     0.010 A 
ATOM      8  C   UNL     1      -1.186  -2.081  -0.180  1.00  0.00     0.003 A 
ATOM      9  C   UNL     1      -0.555  -0.788  -0.262  1.00  0.00    -0.016 A 
ATOM     10  H   UNL     1      -3.523  -0.116   0.724  1.00  0.00     0.166 HD
ENDROOT
BRANCH   1  11
ATOM     11  C   UNL     1      -1.518   1.700   0.162  1.00  0.00     0.023 C 
ATOM     12  C   UNL     1      -1.472   2.227  -1.291  1.00  0.00     0.022 C 
ATOM     13  C   UNL     1      -0.290   2.244   0.917  1.00  0.00     0.022 C 
BRANCH  11  14
ATOM     14  C   UNL     1      -2.731   2.250   0.933  1.00  0.00    -0.022 C 
ATOM     15  C   UNL     1      -3.792   2.912   0.450  1.00  0.00     0.005 C 
ENDBRANCH  11  14
ENDBRANCH   1  11
BRANCH   9  16
ATOM     16  C   UNL     1       0.861  -0.586  -0.740  1.00  0.00     0.073 C 
BRANCH  16  17
ATOM     17  C   UNL     1       1.916  -1.130   0.237  1.00  0.00     0.175 C 
ATOM     18  N   UNL     1       2.027  -0.361   1.477  1.00  0.00    -0.342 N 
ATOM     19  C   UNL     1       3.270  -1.286  -0.479  1.00  0.00     0.243 C 
ATOM     20  C   UNL     1       2.872   0.709   1.620  1.00  0.00     0.242 C 
ATOM     21  N   UNL     1       4.280  -0.453  -0.069  1.00  0.00    -0.343 N 
ATOM     22  O   UNL     1       3.457  -2.081  -1.396  1.00  0.00    -0.273 OA
ATOM     23  O   UNL     1       2.673   1.553   2.489  1.00  0.00    -0.273 OA
ATOM     24  C   UNL     1       4.011   0.819   0.592  1.00  0.00     0.168 C 
ATOM     25  H   UNL     1       1.232  -0.364   2.106  1.00  0.00     0.164 HD
ATOM     26  H   UNL     1       5.133  -0.547  -0.606  1.00  0.00     0.164 HD
ATOM     27  C   UNL     1       3.735   1.928  -0.412  1.00  0.00     0.041 C 
ENDBRANCH  16  17
ENDBRANCH   9  16
TORSDOF 4
