REMARK SMILES CCOC(=O)C(Cc1ccccc1)NC(=O)Cn1nnc(-c2ccccc2)n1
REMARK SMILES IDX 6 1 4 2 5 3 3 4 2 5 1 6 7 7 8 8 9 9 13 10 10 11 12 12 11 13
REMARK SMILES IDX 14 14 15 15 16 16 17 18 18 19 19 20 28 21 20 22 21 23 22 24
REMARK SMILES IDX 23 25 27 26 24 27 26 28 25 29
REMARK H PARENT 14 17
ROOT
ATOM      1  C   UNL     1      -1.276  -0.042   0.858  1.00  0.00     0.196 C 
ENDROOT
BRANCH   1   2
ATOM      2  C   UNL     1      -2.150  -0.915  -0.047  1.00  0.00     0.328 C 
ATOM      3  O   UNL     1      -1.710  -1.608  -0.959  1.00  0.00    -0.250 OA
BRANCH   2   4
ATOM      4  O   UNL     1      -3.463  -0.799   0.291  1.00  0.00    -0.464 OA
BRANCH   4   5
ATOM      5  C   UNL     1      -4.388  -1.555  -0.503  1.00  0.00     0.229 C 
ATOM      6  C   UNL     1      -4.526  -2.960   0.052  1.00  0.00     0.049 C 
ENDBRANCH   4   5
ENDBRANCH   2   4
ENDBRANCH   1   2
BRANCH   1   7
ATOM      7  C   UNL     1      -0.971   1.291   0.163  1.00  0.00     0.072 C 
BRANCH   7   8
ATOM      8  C   UNL     1      -2.175   2.190   0.024  1.00  0.00    -0.045 A 
ATOM      9  C   UNL     1      -2.684   2.873   1.137  1.00  0.00     0.004 A 
ATOM     10  C   UNL     1      -2.812   2.339  -1.216  1.00  0.00     0.004 A 
ATOM     11  C   UNL     1      -3.809   3.689   1.011  1.00  0.00     0.000 A 
ATOM     12  C   UNL     1      -3.937   3.156  -1.339  1.00  0.00     0.000 A 
ATOM     13  C   UNL     1      -4.435   3.830  -0.226  1.00  0.00     0.000 A 
ENDBRANCH   7   8
ENDBRANCH   1   7
BRANCH   1  14
ATOM     14  N   UNL     1      -0.028  -0.779   1.106  1.00  0.00    -0.341 N 
ATOM     15  C   UNL     1       0.077  -1.681   2.142  1.00  0.00     0.244 C 
ATOM     16  O   UNL     1      -0.815  -1.819   2.978  1.00  0.00    -0.273 OA
ATOM     17  H   UNL     1       0.575  -0.930   0.297  1.00  0.00     0.164 HD
BRANCH  15  18
ATOM     18  C   UNL     1       1.302  -2.564   2.153  1.00  0.00     0.269 C 
BRANCH  18  19
ATOM     19  N   UNL     1       2.495  -1.855   1.763  1.00  0.00    -0.154 N 
ATOM     20  N   UNL     1       3.410  -1.445   2.652  1.00  0.00    -0.046 NA
ATOM     21  N   UNL     1       2.771  -1.580   0.470  1.00  0.00    -0.131 NA
ATOM     22  N   UNL     1       4.348  -0.858   1.923  1.00  0.00    -0.108 NA
ATOM     23  C   UNL     1       3.953  -0.949   0.606  1.00  0.00     0.204 A 
BRANCH  23  24
ATOM     24  C   UNL     1       4.736  -0.406  -0.496  1.00  0.00     0.023 A 
ATOM     25  C   UNL     1       4.309  -0.555  -1.824  1.00  0.00     0.012 A 
ATOM     26  C   UNL     1       5.935   0.278  -0.246  1.00  0.00     0.012 A 
ATOM     27  C   UNL     1       5.063  -0.031  -2.877  1.00  0.00     0.001 A 
ATOM     28  C   UNL     1       6.688   0.802  -1.300  1.00  0.00     0.001 A 
ATOM     29  C   UNL     1       6.252   0.647  -2.614  1.00  0.00     0.000 A 
ENDBRANCH  23  24
ENDBRANCH  18  19
ENDBRANCH  15  18
ENDBRANCH   1  14
TORSDOF 9
