REMARK SMILES CCOC(=O)CC(NS(=O)(=O)Cc1ccccc1)c1ccc(C)cc1
REMARK SMILES IDX 6 1 4 2 5 3 3 4 2 5 1 6 7 7 8 8 9 10 10 11 11 12 12 13 13 14
REMARK SMILES IDX 14 15 18 16 15 17 17 18 16 19 19 20 20 21 25 22 21 23 24 24
REMARK SMILES IDX 22 25 23 26
REMARK H PARENT 8 9
ROOT
ATOM      1  C   UNL     1      -1.095   1.587   0.980  1.00  0.00     0.147 C 
ENDROOT
BRANCH   1   2
ATOM      2  C   UNL     1      -2.059   2.046  -0.082  1.00  0.00     0.307 C 
ATOM      3  O   UNL     1      -1.793   2.105  -1.277  1.00  0.00    -0.252 OA
BRANCH   2   4
ATOM      4  O   UNL     1      -3.242   2.419   0.477  1.00  0.00    -0.466 OA
BRANCH   4   5
ATOM      5  C   UNL     1      -4.221   2.875  -0.465  1.00  0.00     0.229 C 
ATOM      6  C   UNL     1      -5.485   3.223   0.297  1.00  0.00     0.049 C 
ENDBRANCH   4   5
ENDBRANCH   2   4
ENDBRANCH   1   2
BRANCH   1   7
ATOM      7  C   UNL     1      -0.304   0.347   0.549  1.00  0.00     0.110 C 
BRANCH   7   8
ATOM      8  N   UNL     1       0.555   0.638  -0.617  1.00  0.00    -0.207 NA
ATOM      9  H   UNL     1       0.107   1.162  -1.380  1.00  0.00     0.141 HD
BRANCH   8  10
ATOM     10  S   UNL     1       2.145   1.111  -0.360  1.00  0.00     0.216 S 
ATOM     11  O   UNL     1       2.183   1.788   0.919  1.00  0.00    -0.212 OA
ATOM     12  O   UNL     1       2.540   1.771  -1.585  1.00  0.00    -0.212 OA
BRANCH  10  13
ATOM     13  C   UNL     1       2.966  -0.487  -0.251  1.00  0.00     0.189 C 
BRANCH  13  14
ATOM     14  C   UNL     1       4.439  -0.275  -0.021  1.00  0.00    -0.032 A 
ATOM     15  C   UNL     1       5.315  -0.130  -1.106  1.00  0.00     0.005 A 
ATOM     16  C   UNL     1       4.955  -0.207   1.281  1.00  0.00     0.005 A 
ATOM     17  C   UNL     1       6.679   0.071  -0.893  1.00  0.00     0.000 A 
ATOM     18  C   UNL     1       6.320  -0.006   1.492  1.00  0.00     0.000 A 
ATOM     19  C   UNL     1       7.182   0.131   0.405  1.00  0.00     0.000 A 
ENDBRANCH  13  14
ENDBRANCH  10  13
ENDBRANCH   8  10
ENDBRANCH   7   8
BRANCH   7  20
ATOM     20  C   UNL     1      -1.207  -0.859   0.328  1.00  0.00    -0.029 A 
ATOM     21  C   UNL     1      -1.670  -1.227  -0.944  1.00  0.00     0.005 A 
ATOM     22  C   UNL     1      -1.619  -1.624   1.432  1.00  0.00     0.005 A 
ATOM     23  C   UNL     1      -2.517  -2.327  -1.108  1.00  0.00     0.004 A 
ATOM     24  C   UNL     1      -2.465  -2.725   1.267  1.00  0.00     0.004 A 
ATOM     25  C   UNL     1      -2.930  -3.077  -0.003  1.00  0.00    -0.051 A 
ATOM     26  C   UNL     1      -3.811  -4.277  -0.186  1.00  0.00     0.044 C 
ENDBRANCH   7  20
ENDBRANCH   1   7
TORSDOF 9
