REMARK SMILES COc1ccc(NC(=O)CC2S/C(=N/c3ccccc3)NC2=O)c(OC)c1
REMARK SMILES IDX 7 1 8 2 9 3 6 5 3 6 4 7 27 8 5 9 24 10 2 11 1 12 25 13 26 14
REMARK SMILES IDX 10 15 11 16 12 17 22 18 13 19 21 20 23 21 14 22 15 24 16 25
REMARK SMILES IDX 20 26 17 27 19 28 18 29
REMARK H PARENT 7 4 21 23
ROOT
ATOM      1  N   UNL     1      -1.909  -0.553  -0.361  1.00  0.00    -0.323 N 
ATOM      2  C   UNL     1      -0.832  -1.028   0.361  1.00  0.00     0.226 C 
ATOM      3  O   UNL     1      -0.828  -1.331   1.549  1.00  0.00    -0.275 OA
ATOM      4  H   UNL     1      -1.783  -0.365  -1.351  1.00  0.00     0.170 HD
ENDROOT
BRANCH   1   5
ATOM      5  C   UNL     1      -3.216  -0.273   0.096  1.00  0.00     0.084 A 
ATOM      6  C   UNL     1      -5.857   0.332   0.844  1.00  0.00     0.122 A 
ATOM      7  C   UNL     1      -4.938  -0.132   1.786  1.00  0.00     0.049 A 
ATOM      8  C   UNL     1      -5.456   0.498  -0.483  1.00  0.00     0.095 A 
ATOM      9  C   UNL     1      -3.624  -0.434   1.419  1.00  0.00     0.034 A 
ATOM     10  C   UNL     1      -4.140   0.199  -0.862  1.00  0.00     0.146 A 
BRANCH   6  11
ATOM     11  O   UNL     1      -7.104   0.585   1.347  1.00  0.00    -0.497 OA
ATOM     12  C   UNL     1      -8.086   1.069   0.440  1.00  0.00     0.278 C 
ENDBRANCH   6  11
BRANCH  10  13
ATOM     13  O   UNL     1      -3.641   0.325  -2.141  1.00  0.00    -0.494 OA
ATOM     14  C   UNL     1      -4.526   0.818  -3.139  1.00  0.00     0.278 C 
ENDBRANCH  10  13
ENDBRANCH   1   5
BRANCH   2  15
ATOM     15  C   UNL     1       0.395  -1.211  -0.516  1.00  0.00     0.125 C 
BRANCH  15  16
ATOM     16  C   UNL     1       1.647  -1.396   0.330  1.00  0.00     0.153 C 
ATOM     17  S   UNL     1       2.984  -2.203  -0.627  1.00  0.00    -0.074 SA
ATOM     18  C   UNL     1       2.241  -0.057   0.732  1.00  0.00     0.240 C 
ATOM     19  C   UNL     1       4.171  -1.041  -0.116  1.00  0.00     0.169 C 
ATOM     20  N   UNL     1       3.599  -0.049   0.608  1.00  0.00    -0.304 N 
ATOM     21  O   UNL     1       1.605   0.920   1.103  1.00  0.00    -0.273 OA
ATOM     22  N   UNL     1       5.412  -1.159  -0.439  1.00  0.00    -0.225 NA
ATOM     23  H   UNL     1       4.115   0.782   0.855  1.00  0.00     0.172 HD
BRANCH  22  24
ATOM     24  C   UNL     1       6.323  -0.189  -0.004  1.00  0.00     0.066 A 
ATOM     25  C   UNL     1       6.948  -0.310   1.239  1.00  0.00     0.028 A 
ATOM     26  C   UNL     1       6.630   0.902  -0.821  1.00  0.00     0.028 A 
ATOM     27  C   UNL     1       7.847   0.664   1.676  1.00  0.00     0.002 A 
ATOM     28  C   UNL     1       7.529   1.879  -0.388  1.00  0.00     0.002 A 
ATOM     29  C   UNL     1       8.134   1.761   0.863  1.00  0.00     0.000 A 
ENDBRANCH  22  24
ENDBRANCH  15  16
ENDBRANCH   2  15
TORSDOF 6
