REMARK SMILES Cc1cccc(OCC(=O)NCc2cc(C)nc3ccccc23)c1
REMARK SMILES IDX 9 1 10 2 11 3 8 5 7 6 6 7 2 8 3 9 24 10 4 11 5 12 1 13 12 14
REMARK SMILES IDX 13 15 14 16 23 17 15 18 22 19 18 20 17 21 21 22 19 23 20 24
REMARK SMILES IDX 16 25
REMARK H PARENT 11 4
ROOT
ATOM      1  C   UNL     1      -1.032  -2.321   0.640  1.00  0.00     0.258 C 
ATOM      2  O   UNL     1      -1.156  -3.375   0.022  1.00  0.00    -0.271 OA
ATOM      3  N   UNL     1      -0.038  -1.404   0.383  1.00  0.00    -0.349 N 
ATOM      4  H   UNL     1      -0.163  -0.479   0.785  1.00  0.00     0.163 HD
ENDROOT
BRANCH   1   5
ATOM      5  C   UNL     1      -1.957  -1.934   1.797  1.00  0.00     0.329 C 
BRANCH   5   6
ATOM      6  O   UNL     1      -2.087  -0.532   2.002  1.00  0.00    -0.484 OA
BRANCH   6   7
ATOM      7  C   UNL     1      -2.874   0.178   1.135  1.00  0.00     0.120 A 
ATOM      8  C   UNL     1      -4.331   0.511  -0.784  1.00  0.00    -0.047 A 
ATOM      9  C   UNL     1      -4.375   1.881  -0.505  1.00  0.00     0.003 A 
ATOM     10  C   UNL     1      -3.566  -0.336   0.036  1.00  0.00     0.049 A 
ATOM     11  C   UNL     1      -3.687   2.396   0.592  1.00  0.00     0.004 A 
ATOM     12  C   UNL     1      -2.942   1.546   1.408  1.00  0.00     0.046 A 
ATOM     13  C   UNL     1      -5.046  -0.042  -1.982  1.00  0.00     0.044 C 
ENDBRANCH   6   7
ENDBRANCH   5   6
ENDBRANCH   1   5
BRANCH   3  14
ATOM     14  C   UNL     1       0.806  -1.535  -0.778  1.00  0.00     0.152 C 
BRANCH  14  15
ATOM     15  C   UNL     1       1.887  -0.486  -0.780  1.00  0.00    -0.018 A 
ATOM     16  C   UNL     1       1.706   0.654  -1.574  1.00  0.00     0.029 A 
ATOM     17  C   UNL     1       3.056  -0.590   0.014  1.00  0.00     0.005 A 
ATOM     18  C   UNL     1       2.681   1.639  -1.579  1.00  0.00     0.038 A 
ATOM     19  C   UNL     1       3.336  -1.679   0.874  1.00  0.00     0.011 A 
ATOM     20  C   UNL     1       3.989   0.469  -0.064  1.00  0.00     0.071 A 
ATOM     21  N   UNL     1       3.807   1.550  -0.839  1.00  0.00    -0.253 NA
ATOM     22  C   UNL     1       4.508  -1.723   1.628  1.00  0.00     0.001 A 
ATOM     23  C   UNL     1       5.149   0.400   0.697  1.00  0.00     0.029 A 
ATOM     24  C   UNL     1       5.419  -0.681   1.538  1.00  0.00     0.002 A 
ATOM     25  C   UNL     1       2.510   2.866  -2.424  1.00  0.00     0.067 C 
ENDBRANCH  14  15
ENDBRANCH   3  14
TORSDOF 5
