REMARK SMILES CSCO[C@H]1C[C@@H](CC=C(C)C)C(=O)c2ccccc21
REMARK SMILES IDX 5 1 6 2 7 3 13 4 14 5 15 6 16 7 17 8 18 9 19 10 20 11 4 12
REMARK SMILES IDX 3 13 2 14 1 15 8 16 9 17 10 18 11 19 12 20
REMARK H PARENT
ROOT
ATOM      1  C   UNL     1       1.480  -0.391   0.790  1.00  0.00     0.151 C 
ATOM      2  C   UNL     1       0.218   0.004   1.558  1.00  0.00     0.049 C 
ATOM      3  C   UNL     1      -1.084  -0.370   0.836  1.00  0.00     0.068 C 
ATOM      4  C   UNL     1      -1.083  -1.850   0.481  1.00  0.00     0.166 C 
ATOM      5  O   UNL     1      -2.130  -2.483   0.356  1.00  0.00    -0.294 OA
ATOM      6  C   UNL     1       0.221  -2.533   0.252  1.00  0.00     0.024 A 
ATOM      7  C   UNL     1       0.214  -3.886  -0.115  1.00  0.00     0.012 A 
ATOM      8  C   UNL     1       1.413  -4.563  -0.335  1.00  0.00     0.001 A 
ATOM      9  C   UNL     1       2.624  -3.892  -0.190  1.00  0.00     0.000 A 
ATOM     10  C   UNL     1       2.638  -2.545   0.177  1.00  0.00     0.007 A 
ATOM     11  C   UNL     1       1.438  -1.849   0.406  1.00  0.00    -0.008 A 
ENDROOT
BRANCH   1  12
ATOM     12  O   UNL     1       1.565   0.381  -0.406  1.00  0.00    -0.363 OA
BRANCH  12  13
ATOM     13  C   UNL     1       2.811   1.043  -0.592  1.00  0.00     0.230 C 
BRANCH  13  14
ATOM     14  S   UNL     1       2.944   2.548   0.412  1.00  0.00    -0.137 SA
ATOM     15  C   UNL     1       4.514   3.163  -0.240  1.00  0.00     0.087 C 
ENDBRANCH  13  14
ENDBRANCH  12  13
ENDBRANCH   1  12
BRANCH   3  16
ATOM     16  C   UNL     1      -1.357   0.478  -0.418  1.00  0.00     0.039 C 
BRANCH  16  17
ATOM     17  C   UNL     1      -2.825   0.522  -0.765  1.00  0.00    -0.028 C 
ATOM     18  C   UNL     1      -3.677   1.557  -0.630  1.00  0.00    -0.080 C 
ATOM     19  C   UNL     1      -3.329   2.901  -0.054  1.00  0.00     0.039 C 
ATOM     20  C   UNL     1      -5.115   1.421  -1.058  1.00  0.00     0.039 C 
ENDBRANCH  16  17
ENDBRANCH   3  16
TORSDOF 5
