REMARK SMILES CC(C)(O)[C@@H]1CC[C@](C)([C@H]2[C@@H](O)C[C@@]3(C)C4C[C@H](O)C5C(C)(C)[C@@H](O)CC[C@]5(C)C4=CC[C@]23C)O1
REMARK SMILES IDX 5 1 6 2 7 3 8 4 9 5 35 6 2 7 1 8 3 9 4 10 10 12 11 13 33 14
REMARK SMILES IDX 13 15 32 16 14 17 31 18 16 19 30 20 17 21 28 22 18 23 27 24
REMARK SMILES IDX 20 25 26 26 21 27 24 28 34 29 15 30 29 31 22 32 23 33 12 34
REMARK SMILES IDX 19 36 25 38
REMARK H PARENT 4 11 12 35 19 37 25 39
ROOT
ATOM      1  C   UNL     1       5.434   0.415   0.784  1.00  0.00     0.150 C 
ATOM      2  C   UNL     1       5.439   0.880  -0.673  1.00  0.00     0.038 C 
ATOM      3  C   UNL     1       4.259   0.167  -1.316  1.00  0.00     0.038 C 
ATOM      4  C   UNL     1       3.922  -0.962  -0.342  1.00  0.00     0.072 C 
ATOM      5  C   UNL     1       4.896  -2.146  -0.586  1.00  0.00     0.043 C 
ATOM      6  O   UNL     1       4.218  -0.356   0.930  1.00  0.00    -0.369 OA
ENDROOT
BRANCH   1   7
ATOM      7  C   UNL     1       5.519   1.526   1.856  1.00  0.00     0.085 C 
ATOM      8  C   UNL     1       6.817   2.327   1.730  1.00  0.00     0.044 C 
ATOM      9  C   UNL     1       5.411   0.935   3.267  1.00  0.00     0.044 C 
BRANCH   7  10
ATOM     10  O   UNL     1       4.432   2.443   1.691  1.00  0.00    -0.388 OA
ATOM     11  H   UNL     1       3.626   1.899   1.761  1.00  0.00     0.211 HD
ENDBRANCH   7  10
ENDBRANCH   1   7
BRANCH   4  12
ATOM     12  C   UNL     1       2.457  -1.503  -0.449  1.00  0.00     0.056 C 
ATOM     13  C   UNL     1       2.103  -2.674   0.543  1.00  0.00     0.121 C 
ATOM     14  C   UNL     1       1.191  -0.579  -0.349  1.00  0.00    -0.015 C 
ATOM     15  C   UNL     1       0.616  -2.535   0.923  1.00  0.00     0.040 C 
ATOM     16  C   UNL     1       0.818   0.254  -1.593  1.00  0.00     0.035 C 
ATOM     17  C   UNL     1       0.027  -1.630  -0.161  1.00  0.00    -0.017 C 
ATOM     18  C   UNL     1      -0.617   0.745  -1.541  1.00  0.00    -0.026 C 
ATOM     19  C   UNL     1      -1.293  -0.892   0.235  1.00  0.00     0.024 C 
ATOM     20  C   UNL     1      -1.592   0.278  -0.719  1.00  0.00    -0.064 C 
ATOM     21  C   UNL     1      -2.486  -1.839   0.359  1.00  0.00     0.040 C 
ATOM     22  C   UNL     1      -2.980   0.982  -0.557  1.00  0.00    -0.005 C 
ATOM     23  C   UNL     1      -3.767  -1.106   0.745  1.00  0.00     0.119 C 
ATOM     24  C   UNL     1      -3.337   1.846  -1.813  1.00  0.00     0.014 C 
ATOM     25  C   UNL     1      -4.146  -0.055  -0.329  1.00  0.00     0.036 C 
ATOM     26  C   UNL     1      -4.819   1.923  -2.188  1.00  0.00     0.033 C 
ATOM     27  C   UNL     1      -5.598   0.592  -0.155  1.00  0.00    -0.003 C 
ATOM     28  C   UNL     1      -5.753   1.906  -0.990  1.00  0.00     0.120 C 
ATOM     29  C   UNL     1       1.358   0.397   0.847  1.00  0.00     0.013 C 
ATOM     30  C   UNL     1      -0.226  -2.524  -1.424  1.00  0.00     0.013 C 
ATOM     31  C   UNL     1      -2.763   1.915   0.663  1.00  0.00     0.016 C 
ATOM     32  C   UNL     1      -6.659  -0.395  -0.730  1.00  0.00     0.014 C 
ATOM     33  C   UNL     1      -5.980   0.833   1.321  1.00  0.00     0.014 C 
BRANCH  13  34
ATOM     34  O   UNL     1       2.874  -2.694   1.731  1.00  0.00    -0.393 OA
ATOM     35  H   UNL     1       2.528  -3.397   2.305  1.00  0.00     0.210 HD
ENDBRANCH  13  34
BRANCH  23  36
ATOM     36  O   UNL     1      -4.777  -2.102   0.897  1.00  0.00    -0.393 OA
ATOM     37  H   UNL     1      -4.846  -2.589   0.058  1.00  0.00     0.210 HD
ENDBRANCH  23  36
BRANCH  28  38
ATOM     38  O   UNL     1      -5.521   3.094  -0.242  1.00  0.00    -0.393 OA
ATOM     39  H   UNL     1      -6.273   3.219   0.362  1.00  0.00     0.210 HD
ENDBRANCH  28  38
ENDBRANCH   4  12
TORSDOF 6
