REMARK SMILES CC(=O)O[C@H]1CCC2[C@]3(C)CC[C@]4(C)[C@@H]([C@H](C)CCC=C(C)C)CC[C@@]4(C)[C@@H]3CC[C@@]2(O)C1(C)C
REMARK SMILES IDX 16 1 17 2 15 3 5 4 6 5 33 6 7 7 31 8 8 9 30 10 9 11 29 12
REMARK SMILES IDX 11 13 28 14 12 15 26 16 13 17 25 18 24 19 34 20 35 21 10 22
REMARK SMILES IDX 27 23 14 24 4 25 2 26 3 27 1 28 32 29 18 31 19 32 20 33
REMARK SMILES IDX 21 34 22 35 23 36
REMARK H PARENT 32 30
ROOT
ATOM      1  C   UNL     1       4.179   1.443  -0.457  1.00  0.00    -0.010 C 
ATOM      2  C   UNL     1       3.984   2.316  -1.705  1.00  0.00     0.008 C 
ENDROOT
BRANCH   1   3
ATOM      3  C   UNL     1       2.923   0.565  -0.165  1.00  0.00    -0.002 C 
ATOM      4  C   UNL     1      -5.665  -0.111  -0.335  1.00  0.00     0.185 C 
ATOM      5  C   UNL     1      -5.278   0.572   0.964  1.00  0.00     0.046 C 
ATOM      6  C   UNL     1      -4.580  -1.131  -0.816  1.00  0.00     0.031 C 
ATOM      7  C   UNL     1      -4.010   1.402   0.792  1.00  0.00     0.011 C 
ATOM      8  C   UNL     1      -3.109  -0.679  -0.370  1.00  0.00     0.077 C 
ATOM      9  C   UNL     1      -2.990   0.867  -0.263  1.00  0.00     0.028 C 
ATOM     10  C   UNL     1      -2.620  -1.321   0.949  1.00  0.00     0.036 C 
ATOM     11  C   UNL     1      -1.506   1.411  -0.020  1.00  0.00    -0.024 C 
ATOM     12  C   UNL     1      -1.592  -0.525   1.763  1.00  0.00     0.008 C 
ATOM     13  C   UNL     1      -0.711   1.506  -1.365  1.00  0.00     0.008 C 
ATOM     14  C   UNL     1      -0.733   0.547   1.060  1.00  0.00     0.002 C 
ATOM     15  C   UNL     1       0.820   1.735  -1.282  1.00  0.00     0.008 C 
ATOM     16  C   UNL     1       0.683   0.041   0.604  1.00  0.00    -0.024 C 
ATOM     17  C   UNL     1       1.514   1.236   0.005  1.00  0.00    -0.024 C 
ATOM     18  C   UNL     1       1.620  -0.411   1.741  1.00  0.00     0.008 C 
ATOM     19  C   UNL     1       3.044  -0.254   1.158  1.00  0.00     0.005 C 
ATOM     20  C   UNL     1      -4.895  -2.573  -0.341  1.00  0.00     0.018 C 
ATOM     21  C   UNL     1      -4.723  -1.183  -2.367  1.00  0.00     0.018 C 
ATOM     22  C   UNL     1      -1.630   2.899   0.444  1.00  0.00     0.012 C 
ATOM     23  C   UNL     1       0.582  -1.200  -0.340  1.00  0.00     0.012 C 
ATOM     24  C   UNL     1       1.708   2.440   0.985  1.00  0.00     0.012 C 
BRANCH   4  25
ATOM     25  O   UNL     1      -6.935  -0.776  -0.175  1.00  0.00    -0.462 OA
BRANCH  25  26
ATOM     26  C   UNL     1      -8.050  -0.015  -0.348  1.00  0.00     0.302 C 
ATOM     27  O   UNL     1      -8.065   1.177  -0.621  1.00  0.00    -0.253 OA
ATOM     28  C   UNL     1      -9.275  -0.855  -0.153  1.00  0.00     0.139 C 
ENDBRANCH  25  26
ENDBRANCH   4  25
BRANCH   8  29
ATOM     29  O   UNL     1      -2.207  -1.185  -1.359  1.00  0.00    -0.389 OA
ATOM     30  H   UNL     1      -2.352  -0.708  -2.193  1.00  0.00     0.211 HD
ENDBRANCH   8  29
ENDBRANCH   1   3
BRANCH   1  31
ATOM     31  C   UNL     1       5.454   0.579  -0.683  1.00  0.00     0.008 C 
BRANCH  31  32
ATOM     32  C   UNL     1       6.273   0.318   0.586  1.00  0.00     0.027 C 
BRANCH  32  33
ATOM     33  C   UNL     1       7.567  -0.380   0.260  1.00  0.00    -0.028 C 
ATOM     34  C   UNL     1       7.860  -1.686   0.419  1.00  0.00    -0.080 C 
ATOM     35  C   UNL     1       9.227  -2.214   0.071  1.00  0.00     0.039 C 
ATOM     36  C   UNL     1       6.903  -2.730   0.923  1.00  0.00     0.039 C 
ENDBRANCH  32  33
ENDBRANCH  31  32
ENDBRANCH   1  31
TORSDOF 7
