REMARK SMILES COc1cc(-c2oc3c(OC)c(OC)cc(OC)c3c(=O)c2OC)cc(OC)c1OC
REMARK SMILES IDX 6 1 7 2 8 3 9 4 12 5 15 6 16 7 19 8 20 9 21 10 22 11 5 12
REMARK SMILES IDX 3 13 4 14 29 15 26 16 25 17 2 18 1 19 30 20 31 21 27 22
REMARK SMILES IDX 28 23 23 24 24 25 10 26 11 27 13 28 14 29 17 30 18 31
REMARK H PARENT
ROOT
ATOM      1  C   UNL     1       0.301  -0.668   0.094  1.00  0.00     0.181 C 
ATOM      2  O   UNL     1      -0.505   0.443  -0.066  1.00  0.00    -0.448 OA
ATOM      3  C   UNL     1      -1.852   0.271  -0.252  1.00  0.00     0.188 A 
ATOM      4  C   UNL     1      -2.606   1.415  -0.554  1.00  0.00     0.205 A 
ATOM      5  C   UNL     1      -3.983   1.329  -0.806  1.00  0.00     0.168 A 
ATOM      6  C   UNL     1      -4.602   0.083  -0.707  1.00  0.00     0.097 A 
ATOM      7  C   UNL     1      -3.856  -1.053  -0.362  1.00  0.00     0.137 A 
ATOM      8  C   UNL     1      -2.473  -0.969  -0.149  1.00  0.00     0.115 A 
ATOM      9  C   UNL     1      -1.634  -2.140   0.187  1.00  0.00     0.239 C 
ATOM     10  O   UNL     1      -2.123  -3.225   0.477  1.00  0.00    -0.285 OA
ATOM     11  C   UNL     1      -0.153  -1.933   0.187  1.00  0.00     0.210 C 
ENDROOT
BRANCH   1  12
ATOM     12  C   UNL     1       1.740  -0.318   0.125  1.00  0.00     0.029 A 
ATOM     13  C   UNL     1       3.942  -0.452   1.159  1.00  0.00     0.165 A 
ATOM     14  C   UNL     1       2.590  -0.802   1.133  1.00  0.00     0.062 A 
ATOM     15  C   UNL     1       4.434   0.431   0.183  1.00  0.00     0.203 A 
ATOM     16  C   UNL     1       3.605   0.927  -0.836  1.00  0.00     0.165 A 
ATOM     17  C   UNL     1       2.259   0.552  -0.851  1.00  0.00     0.062 A 
BRANCH  13  18
ATOM     18  O   UNL     1       4.840  -0.886   2.100  1.00  0.00    -0.493 OA
ATOM     19  C   UNL     1       4.461  -2.014   2.879  1.00  0.00     0.278 C 
ENDBRANCH  13  18
BRANCH  15  20
ATOM     20  O   UNL     1       5.773   0.757   0.182  1.00  0.00    -0.490 OA
ATOM     21  C   UNL     1       5.984   1.932   0.962  1.00  0.00     0.278 C 
ENDBRANCH  15  20
BRANCH  16  22
ATOM     22  O   UNL     1       4.195   1.766  -1.746  1.00  0.00    -0.493 OA
ATOM     23  C   UNL     1       3.399   2.220  -2.832  1.00  0.00     0.278 C 
ENDBRANCH  16  22
ENDBRANCH   1  12
BRANCH  11  24
ATOM     24  O   UNL     1       0.717  -3.004   0.341  1.00  0.00    -0.490 OA
ATOM     25  C   UNL     1       0.423  -4.111  -0.508  1.00  0.00     0.278 C 
ENDBRANCH  11  24
BRANCH   4  26
ATOM     26  O   UNL     1      -1.951   2.618  -0.694  1.00  0.00    -0.490 OA
ATOM     27  C   UNL     1      -2.029   3.364   0.521  1.00  0.00     0.278 C 
ENDBRANCH   4  26
BRANCH   5  28
ATOM     28  O   UNL     1      -4.617   2.497  -1.135  1.00  0.00    -0.493 OA
ATOM     29  C   UNL     1      -5.977   2.412  -1.540  1.00  0.00     0.278 C 
ENDBRANCH   5  28
BRANCH   7  30
ATOM     30  O   UNL     1      -4.524  -2.250  -0.353  1.00  0.00    -0.496 OA
ATOM     31  C   UNL     1      -5.100  -2.494   0.932  1.00  0.00     0.278 C 
ENDBRANCH   7  30
TORSDOF 8
