REMARK SMILES CCc1ccccc1NC(=O)c1cn(C)c(=O)c2ccccc12
REMARK SMILES IDX 3 1 4 2 5 3 6 4 7 5 8 6 2 7 1 8 9 9 10 10 11 11 12 13 13 14
REMARK SMILES IDX 23 15 14 16 22 17 18 18 16 19 21 20 19 21 17 22 20 23 15 24
REMARK H PARENT 9 12
ROOT
ATOM      1  C   UNL     1       3.348   0.265  -0.375  1.00  0.00    -0.025 A 
ATOM      2  C   UNL     1       4.686   0.670  -0.157  1.00  0.00     0.006 A 
ATOM      3  C   UNL     1       5.102   1.215   1.057  1.00  0.00     0.000 A 
ATOM      4  C   UNL     1       4.192   1.354   2.092  1.00  0.00     0.002 A 
ATOM      5  C   UNL     1       2.865   0.976   1.897  1.00  0.00     0.026 A 
ATOM      6  C   UNL     1       2.416   0.470   0.661  1.00  0.00     0.044 A 
ENDROOT
BRANCH   1   7
ATOM      7  C   UNL     1       3.078  -0.454  -1.680  1.00  0.00     0.034 C 
ATOM      8  C   UNL     1       2.656  -1.906  -1.495  1.00  0.00     0.009 C 
ENDBRANCH   1   7
BRANCH   6   9
ATOM      9  N   UNL     1       1.037   0.163   0.622  1.00  0.00    -0.322 N 
ATOM     10  C   UNL     1       0.172   0.336  -0.441  1.00  0.00     0.257 C 
ATOM     11  O   UNL     1       0.416   0.848  -1.524  1.00  0.00    -0.269 OA
ATOM     12  H   UNL     1       0.583   0.092   1.525  1.00  0.00     0.170 HD
BRANCH  10  13
ATOM     13  C   UNL     1      -1.226  -0.075  -0.104  1.00  0.00     0.064 C 
ATOM     14  C   UNL     1      -1.414  -1.354   0.262  1.00  0.00     0.103 C 
ATOM     15  C   UNL     1      -2.389   0.819  -0.209  1.00  0.00     0.001 A 
ATOM     16  N   UNL     1      -2.658  -1.866   0.585  1.00  0.00    -0.317 N 
ATOM     17  C   UNL     1      -2.276   2.162  -0.600  1.00  0.00     0.010 A 
ATOM     18  C   UNL     1      -3.663   0.323   0.111  1.00  0.00     0.048 A 
ATOM     19  C   UNL     1      -3.823  -1.096   0.536  1.00  0.00     0.258 C 
ATOM     20  C   UNL     1      -3.405   2.984  -0.673  1.00  0.00     0.001 A 
ATOM     21  C   UNL     1      -4.795   1.148   0.038  1.00  0.00     0.014 A 
ATOM     22  O   UNL     1      -4.939  -1.523   0.821  1.00  0.00    -0.269 OA
ATOM     23  C   UNL     1      -4.663   2.479  -0.354  1.00  0.00     0.001 A 
ATOM     24  C   UNL     1      -2.752  -3.270   0.961  1.00  0.00     0.153 C 
ENDBRANCH  10  13
ENDBRANCH   6   9
TORSDOF 3
