REMARK SMILES COc1cc(O)c2c(=O)cc(-c3ccccc3O)oc2c1OC
REMARK SMILES IDX 3 1 4 2 5 3 7 4 8 5 9 6 10 7 11 8 19 9 20 10 21 11 2 12 1 13
REMARK SMILES IDX 22 14 23 15 6 16 12 18 13 19 17 20 14 21 16 22 15 23 18 24
REMARK H PARENT 6 17 18 25
ROOT
ATOM      1  C   UNL     1      -3.050   0.451   0.625  1.00  0.00     0.168 A 
ATOM      2  C   UNL     1      -3.190  -0.573   1.565  1.00  0.00     0.097 A 
ATOM      3  C   UNL     1      -2.075  -1.323   1.963  1.00  0.00     0.134 A 
ATOM      4  C   UNL     1      -0.805  -1.061   1.430  1.00  0.00     0.111 A 
ATOM      5  C   UNL     1       0.408  -1.819   1.823  1.00  0.00     0.197 C 
ATOM      6  O   UNL     1       0.429  -2.712   2.659  1.00  0.00    -0.289 OA
ATOM      7  C   UNL     1       1.663  -1.451   1.147  1.00  0.00     0.100 C 
ATOM      8  C   UNL     1       1.658  -0.449   0.261  1.00  0.00     0.142 C 
ATOM      9  O   UNL     1       0.546   0.289  -0.080  1.00  0.00    -0.451 OA
ATOM     10  C   UNL     1      -0.662  -0.041   0.487  1.00  0.00     0.188 A 
ATOM     11  C   UNL     1      -1.781   0.697   0.078  1.00  0.00     0.205 A 
ENDROOT
BRANCH   1  12
ATOM     12  O   UNL     1      -4.071   1.241   0.167  1.00  0.00    -0.493 OA
ATOM     13  C   UNL     1      -5.328   1.138   0.822  1.00  0.00     0.278 C 
ENDBRANCH   1  12
BRANCH  11  14
ATOM     14  O   UNL     1      -1.620   1.729  -0.819  1.00  0.00    -0.490 OA
ATOM     15  C   UNL     1      -1.750   1.239  -2.153  1.00  0.00     0.278 C 
ENDBRANCH  11  14
BRANCH   3  16
ATOM     16  O   UNL     1      -2.254  -2.319   2.881  1.00  0.00    -0.507 OA
ATOM     17  H   UNL     1      -3.177  -2.362   3.173  1.00  0.00     0.293 HD
ENDBRANCH   3  16
BRANCH   8  18
ATOM     18  C   UNL     1       2.886  -0.055  -0.442  1.00  0.00     0.059 A 
ATOM     19  C   UNL     1       3.933   0.547   0.273  1.00  0.00     0.016 A 
ATOM     20  C   UNL     1       3.043  -0.260  -1.821  1.00  0.00     0.126 A 
ATOM     21  C   UNL     1       5.107   0.933  -0.377  1.00  0.00     0.001 A 
ATOM     22  C   UNL     1       4.216   0.125  -2.473  1.00  0.00     0.047 A 
ATOM     23  C   UNL     1       5.247   0.722  -1.748  1.00  0.00     0.004 A 
BRANCH  20  24
ATOM     24  O   UNL     1       2.038  -0.859  -2.533  1.00  0.00    -0.507 OA
ATOM     25  H   UNL     1       2.305  -0.917  -3.464  1.00  0.00     0.293 HD
ENDBRANCH  20  24
ENDBRANCH   8  18
TORSDOF 5
