REMARK SMILES CSc1cccc(NC(=S)N(Cc2ccccc2)Cc2ccccn2)c1
REMARK SMILES IDX 8 1 9 2 10 3 7 5 3 6 4 7 26 8 5 9 6 10 2 11 1 12 11 13 12 14
REMARK SMILES IDX 13 15 14 16 18 17 15 18 17 19 16 20 19 21 20 22 21 23 25 24
REMARK SMILES IDX 22 25 24 26 23 27
REMARK H PARENT 8 4
ROOT
ATOM      1  N   UNL     1       0.729   0.021  -0.108  1.00  0.00    -0.333 N 
ATOM      2  C   UNL     1       0.300  -1.170   0.464  1.00  0.00     0.174 C 
ATOM      3  S   UNL     1       1.078  -2.651   0.309  1.00  0.00    -0.041 S 
ATOM      4  H   UNL     1      -0.055   0.590  -0.411  1.00  0.00     0.169 HD
ENDROOT
BRANCH   1   5
ATOM      5  C   UNL     1       1.987   0.441  -0.588  1.00  0.00     0.041 A 
ATOM      6  C   UNL     1       4.417   0.419  -0.654  1.00  0.00     0.009 A 
ATOM      7  C   UNL     1       4.404   1.460  -1.586  1.00  0.00     0.015 A 
ATOM      8  C   UNL     1       3.207  -0.088  -0.161  1.00  0.00     0.041 A 
ATOM      9  C   UNL     1       3.193   2.012  -1.997  1.00  0.00     0.003 A 
ATOM     10  C   UNL     1       1.992   1.512  -1.491  1.00  0.00     0.026 A 
BRANCH   6  11
ATOM     11  S   UNL     1       5.955  -0.293  -0.092  1.00  0.00    -0.130 SA
ATOM     12  C   UNL     1       6.706   1.169   0.673  1.00  0.00     0.091 C 
ENDBRANCH   6  11
ENDBRANCH   1   5
BRANCH   2  13
ATOM     13  N   UNL     1      -0.923  -0.987   1.159  1.00  0.00    -0.339 N 
BRANCH  13  14
ATOM     14  C   UNL     1      -1.094   0.223   1.983  1.00  0.00     0.154 C 
BRANCH  14  15
ATOM     15  C   UNL     1      -1.690   1.404   1.251  1.00  0.00    -0.029 A 
ATOM     16  C   UNL     1      -1.009   2.632   1.222  1.00  0.00     0.005 A 
ATOM     17  C   UNL     1      -2.932   1.311   0.612  1.00  0.00     0.005 A 
ATOM     18  C   UNL     1      -1.549   3.731   0.552  1.00  0.00     0.000 A 
ATOM     19  C   UNL     1      -3.472   2.410  -0.059  1.00  0.00     0.000 A 
ATOM     20  C   UNL     1      -2.780   3.619  -0.090  1.00  0.00     0.000 A 
ENDBRANCH  14  15
ENDBRANCH  13  14
BRANCH  13  21
ATOM     21  C   UNL     1      -1.809  -2.120   1.496  1.00  0.00     0.175 C 
BRANCH  21  22
ATOM     22  C   UNL     1      -2.499  -2.745   0.295  1.00  0.00     0.060 A 
ATOM     23  C   UNL     1      -2.283  -4.084  -0.027  1.00  0.00     0.026 A 
ATOM     24  N   UNL     1      -3.358  -1.964  -0.412  1.00  0.00    -0.259 NA
ATOM     25  C   UNL     1      -2.943  -4.632  -1.124  1.00  0.00     0.004 A 
ATOM     26  C   UNL     1      -3.979  -2.522  -1.475  1.00  0.00     0.111 A 
ATOM     27  C   UNL     1      -3.806  -3.837  -1.866  1.00  0.00     0.020 A 
ENDBRANCH  21  22
ENDBRANCH  13  21
ENDBRANCH   2  13
TORSDOF 7
