REMARK SMILES CC(C)=CCc1cc(-c2oc3cc(O)cc(O)c3c(=O)c2O)ccc1O
REMARK SMILES IDX 6 1 7 2 8 3 23 4 24 5 25 6 5 7 4 8 2 9 1 10 3 11 26 12 9 14
REMARK SMILES IDX 10 15 21 16 11 17 19 18 12 19 18 20 20 21 13 22 16 23 15 24
REMARK SMILES IDX 22 25 14 27 17 29
REMARK H PARENT 26 13 22 26 14 28 17 30
ROOT
ATOM      1  C   UNL     1       1.945  -0.523   0.900  1.00  0.00    -0.002 A 
ATOM      2  C   UNL     1       0.763   0.088   0.441  1.00  0.00     0.020 A 
ATOM      3  C   UNL     1      -0.341  -0.671   0.023  1.00  0.00     0.022 A 
ATOM      4  C   UNL     1      -0.252  -2.069   0.086  1.00  0.00     0.016 A 
ATOM      5  C   UNL     1       0.915  -2.692   0.535  1.00  0.00     0.047 A 
ATOM      6  C   UNL     1       2.003  -1.919   0.935  1.00  0.00     0.119 A 
ENDROOT
BRANCH   1   7
ATOM      7  C   UNL     1       3.121   0.336   1.305  1.00  0.00     0.066 C 
BRANCH   7   8
ATOM      8  C   UNL     1       3.963   0.747   0.126  1.00  0.00    -0.023 C 
ATOM      9  C   UNL     1       5.238   0.406  -0.151  1.00  0.00    -0.080 C 
ATOM     10  C   UNL     1       5.919   0.931  -1.388  1.00  0.00     0.039 C 
ATOM     11  C   UNL     1       6.093  -0.507   0.683  1.00  0.00     0.039 C 
ENDBRANCH   7   8
ENDBRANCH   1   7
BRANCH   6  12
ATOM     12  O   UNL     1       3.144  -2.528   1.376  1.00  0.00    -0.508 OA
ATOM     13  H   UNL     1       3.049  -3.488   1.266  1.00  0.00     0.293 HD
ENDBRANCH   6  12
BRANCH   3  14
ATOM     14  C   UNL     1      -1.595  -0.034  -0.435  1.00  0.00     0.180 C 
ATOM     15  O   UNL     1      -2.728  -0.598   0.139  1.00  0.00    -0.452 OA
ATOM     16  C   UNL     1      -1.628   0.970  -1.332  1.00  0.00     0.208 C 
ATOM     17  C   UNL     1      -3.961  -0.102  -0.200  1.00  0.00     0.146 A 
ATOM     18  C   UNL     1      -2.945   1.521  -1.726  1.00  0.00     0.238 C 
ATOM     19  C   UNL     1      -5.070  -0.688   0.410  1.00  0.00     0.094 A 
ATOM     20  C   UNL     1      -4.136   0.936  -1.109  1.00  0.00     0.111 A 
ATOM     21  O   UNL     1      -3.020   2.435  -2.544  1.00  0.00    -0.285 OA
ATOM     22  C   UNL     1      -6.347  -0.225   0.101  1.00  0.00     0.123 A 
ATOM     23  C   UNL     1      -5.423   1.394  -1.413  1.00  0.00     0.134 A 
ATOM     24  C   UNL     1      -6.534   0.813  -0.808  1.00  0.00     0.093 A 
BRANCH  16  25
ATOM     25  O   UNL     1      -0.510   1.519  -1.932  1.00  0.00    -0.502 OA
ATOM     26  H   UNL     1      -0.853   2.200  -2.548  1.00  0.00     0.293 HD
ENDBRANCH  16  25
BRANCH  22  27
ATOM     27  O   UNL     1      -7.403  -0.825   0.719  1.00  0.00    -0.508 OA
ATOM     28  H   UNL     1      -8.226  -0.403   0.418  1.00  0.00     0.293 HD
ENDBRANCH  22  27
BRANCH  23  29
ATOM     29  O   UNL     1      -5.664   2.409  -2.299  1.00  0.00    -0.507 OA
ATOM     30  H   UNL     1      -4.803   2.726  -2.653  1.00  0.00     0.293 HD
ENDBRANCH  23  29
ENDBRANCH   3  14
TORSDOF 7
