REMARK SMILES Cc1cccc(C(=O)Oc2c(Sc3ccccc3)c(C)nn2C(C)(C)C)c1
REMARK SMILES IDX 9 1 7 2 8 3 6 4 2 5 3 6 27 7 4 8 5 9 1 10 10 11 11 12 22 13
REMARK SMILES IDX 19 14 21 15 20 16 12 17 13 18 14 19 18 20 15 21 17 22 16 23
REMARK SMILES IDX 23 24 24 25 25 26 26 27
REMARK H PARENT
ROOT
ATOM      1  O   UNL     1       0.978   0.314   0.249  1.00  0.00    -0.403 OA
ENDROOT
BRANCH   1   2
ATOM      2  C   UNL     1       1.061  -0.455  -0.864  1.00  0.00     0.344 C 
ATOM      3  O   UNL     1       0.173  -0.700  -1.669  1.00  0.00    -0.246 OA
BRANCH   2   4
ATOM      4  C   UNL     1       2.459  -0.939  -1.039  1.00  0.00     0.060 A 
ATOM      5  C   UNL     1       4.748  -1.249  -0.262  1.00  0.00    -0.050 A 
ATOM      6  C   UNL     1       5.056  -1.896  -1.465  1.00  0.00     0.003 A 
ATOM      7  C   UNL     1       3.442  -0.784  -0.049  1.00  0.00     0.019 A 
ATOM      8  C   UNL     1       4.082  -2.059  -2.450  1.00  0.00     0.001 A 
ATOM      9  C   UNL     1       2.788  -1.582  -2.240  1.00  0.00     0.016 A 
ATOM     10  C   UNL     1       5.787  -1.113   0.813  1.00  0.00     0.044 C 
ENDBRANCH   2   4
ENDBRANCH   1   2
BRANCH   1  11
ATOM     11  C   UNL     1      -0.258   0.645   0.605  1.00  0.00     0.236 A 
ATOM     12  C   UNL     1      -1.304  -0.104   1.105  1.00  0.00     0.098 A 
ATOM     13  N   UNL     1      -0.704   1.951   0.596  1.00  0.00    -0.227 N 
ATOM     14  C   UNL     1      -2.346   0.819   1.355  1.00  0.00     0.077 A 
ATOM     15  N   UNL     1      -1.979   2.066   1.034  1.00  0.00    -0.173 NA
ATOM     16  C   UNL     1      -3.701   0.580   1.912  1.00  0.00     0.070 C 
BRANCH  12  17
ATOM     17  S   UNL     1      -1.282  -1.821   1.433  1.00  0.00    -0.083 SA
BRANCH  17  18
ATOM     18  C   UNL     1      -2.742  -2.411   0.596  1.00  0.00     0.012 A 
ATOM     19  C   UNL     1      -2.969  -2.145  -0.758  1.00  0.00     0.015 A 
ATOM     20  C   UNL     1      -3.671  -3.180   1.306  1.00  0.00     0.015 A 
ATOM     21  C   UNL     1      -4.120  -2.623  -1.389  1.00  0.00     0.001 A 
ATOM     22  C   UNL     1      -4.822  -3.659   0.675  1.00  0.00     0.001 A 
ATOM     23  C   UNL     1      -5.047  -3.377  -0.672  1.00  0.00     0.000 A 
ENDBRANCH  17  18
ENDBRANCH  12  17
BRANCH  13  24
ATOM     24  C   UNL     1       0.035   3.162   0.183  1.00  0.00     0.058 C 
ATOM     25  C   UNL     1       0.404   3.078  -1.310  1.00  0.00     0.036 C 
ATOM     26  C   UNL     1       1.312   3.325   1.032  1.00  0.00     0.036 C 
ATOM     27  C   UNL     1      -0.811   4.445   0.378  1.00  0.00     0.036 C 
ENDBRANCH  13  24
ENDBRANCH   1  11
TORSDOF 6
