REMARK SMILES COc1cc(O)c2c(=O)cc(Oc3ccc(O)cc3)oc2c1C[C@@H](O)C(C)(C)O
REMARK SMILES IDX 3 1 4 2 5 3 7 4 8 5 9 6 10 7 11 8 20 9 21 10 22 11 2 12 1 13
REMARK SMILES IDX 23 14 24 15 25 16 26 18 27 19 28 20 29 21 6 23 12 25 13 26
REMARK SMILES IDX 14 27 19 28 15 29 18 30 16 31 17 32
REMARK H PARENT 25 17 29 22 6 24 17 33
ROOT
ATOM      1  C   UNL     1       1.602  -2.390  -0.646  1.00  0.00     0.129 A 
ATOM      2  C   UNL     1       1.468  -3.254  -1.738  1.00  0.00     0.093 A 
ATOM      3  C   UNL     1       0.284  -3.279  -2.473  1.00  0.00     0.134 A 
ATOM      4  C   UNL     1      -0.771  -2.431  -2.136  1.00  0.00     0.107 A 
ATOM      5  C   UNL     1      -2.025  -2.423  -2.898  1.00  0.00     0.200 C 
ATOM      6  O   UNL     1      -2.194  -3.180  -3.848  1.00  0.00    -0.289 OA
ATOM      7  C   UNL     1      -3.057  -1.468  -2.482  1.00  0.00     0.142 C 
ATOM      8  C   UNL     1      -2.819  -0.653  -1.448  1.00  0.00     0.294 C 
ATOM      9  O   UNL     1      -1.638  -0.677  -0.718  1.00  0.00    -0.425 OA
ATOM     10  C   UNL     1      -0.644  -1.561  -1.058  1.00  0.00     0.152 A 
ATOM     11  C   UNL     1       0.532  -1.543  -0.284  1.00  0.00     0.041 A 
ENDROOT
BRANCH   1  12
ATOM     12  O   UNL     1       2.730  -2.283   0.125  1.00  0.00    -0.496 OA
ATOM     13  C   UNL     1       3.806  -3.169  -0.158  1.00  0.00     0.278 C 
ENDBRANCH   1  12
BRANCH  11  14
ATOM     14  C   UNL     1       0.656  -0.624   0.926  1.00  0.00     0.078 C 
BRANCH  14  15
ATOM     15  C   UNL     1       1.375   0.698   0.589  1.00  0.00     0.150 C 
BRANCH  15  16
ATOM     16  O   UNL     1       0.440   1.581  -0.063  1.00  0.00    -0.390 OA
ATOM     17  H   UNL     1      -0.044   1.063  -0.729  1.00  0.00     0.211 HD
ENDBRANCH  15  16
BRANCH  15  18
ATOM     18  C   UNL     1       1.913   1.445   1.844  1.00  0.00     0.085 C 
ATOM     19  C   UNL     1       2.975   0.641   2.598  1.00  0.00     0.044 C 
ATOM     20  C   UNL     1       2.498   2.813   1.462  1.00  0.00     0.044 C 
BRANCH  18  21
ATOM     21  O   UNL     1       0.826   1.688   2.747  1.00  0.00    -0.388 OA
ATOM     22  H   UNL     1       0.114   2.086   2.206  1.00  0.00     0.211 HD
ENDBRANCH  18  21
ENDBRANCH  15  18
ENDBRANCH  14  15
ENDBRANCH  11  14
BRANCH   3  23
ATOM     23  O   UNL     1       0.231  -4.156  -3.523  1.00  0.00    -0.507 OA
ATOM     24  H   UNL     1      -0.654  -4.079  -3.948  1.00  0.00     0.293 HD
ENDBRANCH   3  23
BRANCH   8  25
ATOM     25  O   UNL     1      -3.817   0.264  -1.099  1.00  0.00    -0.426 OA
BRANCH  25  26
ATOM     26  C   UNL     1      -3.458   1.216  -0.177  1.00  0.00     0.131 A 
ATOM     27  C   UNL     1      -3.586   0.948   1.186  1.00  0.00     0.051 A 
ATOM     28  C   UNL     1      -2.983   2.449  -0.624  1.00  0.00     0.051 A 
ATOM     29  C   UNL     1      -3.191   1.913   2.112  1.00  0.00     0.050 A 
ATOM     30  C   UNL     1      -2.590   3.414   0.304  1.00  0.00     0.050 A 
ATOM     31  C   UNL     1      -2.692   3.133   1.665  1.00  0.00     0.115 A 
BRANCH  31  32
ATOM     32  O   UNL     1      -2.303   4.039   2.606  1.00  0.00    -0.508 OA
ATOM     33  H   UNL     1      -1.953   4.827   2.157  1.00  0.00     0.293 HD
ENDBRANCH  31  32
ENDBRANCH  25  26
ENDBRANCH   8  25
TORSDOF 10
