REMARK SMILES COc1cccc2oc3c(O)cccc3c(=O)c12
REMARK SMILES IDX 3 1 4 2 5 3 6 4 7 5 8 6 9 7 10 8 12 9 13 10 14 11 15 12
REMARK SMILES IDX 16 13 17 14 18 15 2 16 1 17 11 18
REMARK H PARENT 11 19
ROOT
ATOM      1  C   UNL     1      -2.186   0.274   0.149  1.00  0.00     0.133 A 
ATOM      2  C   UNL     1      -2.746   1.560   0.134  1.00  0.00     0.047 A 
ATOM      3  C   UNL     1      -1.933   2.694   0.114  1.00  0.00     0.008 A 
ATOM      4  C   UNL     1      -0.549   2.557   0.109  1.00  0.00     0.048 A 
ATOM      5  C   UNL     1       0.026   1.284   0.124  1.00  0.00     0.142 A 
ATOM      6  O   UNL     1       1.401   1.270   0.117  1.00  0.00    -0.452 OA
ATOM      7  C   UNL     1       2.038   0.058   0.131  1.00  0.00     0.180 A 
ATOM      8  C   UNL     1       3.435   0.073   0.124  1.00  0.00     0.159 A 
ATOM      9  C   UNL     1       4.167  -1.110   0.137  1.00  0.00     0.050 A 
ATOM     10  C   UNL     1       3.498  -2.333   0.157  1.00  0.00     0.005 A 
ATOM     11  C   UNL     1       2.102  -2.362   0.165  1.00  0.00     0.016 A 
ATOM     12  C   UNL     1       1.377  -1.163   0.151  1.00  0.00     0.069 A 
ATOM     13  C   UNL     1      -0.095  -1.175   0.159  1.00  0.00     0.204 C 
ATOM     14  O   UNL     1      -0.678  -2.250   0.177  1.00  0.00    -0.288 OA
ATOM     15  C   UNL     1      -0.782   0.141   0.144  1.00  0.00     0.107 A 
ENDROOT
BRANCH   1  16
ATOM     16  O   UNL     1      -2.933  -0.871   0.169  1.00  0.00    -0.496 OA
ATOM     17  C   UNL     1      -4.349  -0.762   0.175  1.00  0.00     0.278 C 
ENDBRANCH   1  16
BRANCH   8  18
ATOM     18  O   UNL     1       4.132   1.250   0.104  1.00  0.00    -0.504 OA
ATOM     19  H   UNL     1       3.475   1.970   0.097  1.00  0.00     0.293 HD
ENDBRANCH   8  18
TORSDOF 2
