REMARK SMILES CSc1ccc(-c2nc3cc(C)ccn3c2Nc2ccc(C)cc2)cc1
REMARK SMILES IDX 7 1 8 2 9 3 10 4 11 5 12 6 13 7 14 8 15 9 16 10 6 11 3 12
REMARK SMILES IDX 4 13 26 14 5 15 25 16 2 17 1 18 17 19 18 21 19 22 24 23
REMARK SMILES IDX 20 24 23 25 21 26 22 27
REMARK H PARENT 17 20
ROOT
ATOM      1  C   UNL     1       1.278   0.648   0.544  1.00  0.00     0.114 A 
ATOM      2  N   UNL     1       1.733   1.900   0.196  1.00  0.00    -0.226 NA
ATOM      3  C   UNL     1       0.661   2.659   0.147  1.00  0.00     0.139 A 
ATOM      4  C   UNL     1       0.516   4.043  -0.157  1.00  0.00     0.051 C 
ATOM      5  C   UNL     1      -0.698   4.633  -0.093  1.00  0.00    -0.046 C 
ATOM      6  C   UNL     1      -0.908   6.085  -0.400  1.00  0.00     0.044 C 
ATOM      7  C   UNL     1      -1.878   3.862   0.293  1.00  0.00     0.022 C 
ATOM      8  C   UNL     1      -1.748   2.554   0.568  1.00  0.00     0.095 C 
ATOM      9  N   UNL     1      -0.491   1.951   0.479  1.00  0.00    -0.286 N 
ATOM     10  C   UNL     1      -0.099   0.638   0.711  1.00  0.00     0.143 A 
ENDROOT
BRANCH   1  11
ATOM     11  C   UNL     1       2.180  -0.479   0.711  1.00  0.00     0.004 A 
ATOM     12  C   UNL     1       3.981  -2.621   1.046  1.00  0.00     0.007 A 
ATOM     13  C   UNL     1       2.738  -2.828   0.440  1.00  0.00     0.016 A 
ATOM     14  C   UNL     1       4.317  -1.340   1.490  1.00  0.00     0.016 A 
ATOM     15  C   UNL     1       1.848  -1.764   0.265  1.00  0.00     0.011 A 
ATOM     16  C   UNL     1       3.427  -0.275   1.315  1.00  0.00     0.011 A 
BRANCH  12  17
ATOM     17  S   UNL     1       5.082  -4.006   1.260  1.00  0.00    -0.130 SA
ATOM     18  C   UNL     1       6.540  -3.382   0.381  1.00  0.00     0.091 C 
ENDBRANCH  12  17
ENDBRANCH   1  11
BRANCH  10  19
ATOM     19  N   UNL     1      -0.965  -0.333   1.127  1.00  0.00    -0.339 N 
ATOM     20  H   UNL     1      -0.549  -1.091   1.671  1.00  0.00     0.168 HD
BRANCH  19  21
ATOM     21  C   UNL     1      -2.003  -0.882   0.325  1.00  0.00     0.040 A 
ATOM     22  C   UNL     1      -2.236  -0.511  -1.004  1.00  0.00     0.026 A 
ATOM     23  C   UNL     1      -2.879  -1.802   0.918  1.00  0.00     0.026 A 
ATOM     24  C   UNL     1      -3.301  -1.060  -1.727  1.00  0.00     0.005 A 
ATOM     25  C   UNL     1      -3.945  -2.351   0.199  1.00  0.00     0.005 A 
ATOM     26  C   UNL     1      -4.170  -1.976  -1.128  1.00  0.00    -0.051 A 
ATOM     27  C   UNL     1      -5.291  -2.589  -1.914  1.00  0.00     0.044 C 
ENDBRANCH  19  21
ENDBRANCH  10  19
TORSDOF 4
