REMARK SMILES C=C1COC(=O)[C@]12C[C@@]1(C)[C@H]([C@@H](OC(=O)/C(C)=C\C)CC[C@@H]1C)[C@H]2OC(C)=O
REMARK SMILES IDX 1 1 2 2 3 3 4 4 5 5 6 6 7 7 8 8 9 9 10 10 22 11 23 12 21 13
REMARK SMILES IDX 20 14 12 15 11 16 24 17 25 18 26 19 28 20 27 21 13 22 14 23
REMARK SMILES IDX 15 24 16 25 18 26 17 27 19 28
REMARK H PARENT
ROOT
ATOM      1  C   UNL     1      -4.321  -0.226   0.197  1.00  0.00     0.013 C 
ATOM      2  C   UNL     1      -3.543   0.777  -0.238  1.00  0.00    -0.019 C 
ATOM      3  C   UNL     1      -3.964   2.201  -0.229  1.00  0.00     0.265 C 
ATOM      4  O   UNL     1      -3.059   2.883  -1.087  1.00  0.00    -0.460 OA
ATOM      5  C   UNL     1      -2.045   2.058  -1.470  1.00  0.00     0.320 C 
ATOM      6  O   UNL     1      -1.150   2.424  -2.218  1.00  0.00    -0.251 OA
ATOM      7  C   UNL     1      -2.175   0.670  -0.856  1.00  0.00     0.130 C 
ATOM      8  C   UNL     1      -2.043  -0.406  -1.961  1.00  0.00     0.035 C 
ATOM      9  C   UNL     1      -0.776  -1.244  -1.626  1.00  0.00    -0.018 C 
ATOM     10  C   UNL     1      -0.008  -1.570  -2.920  1.00  0.00     0.012 C 
ATOM     11  C   UNL     1      -1.170  -2.547  -0.841  1.00  0.00    -0.008 C 
ATOM     12  C   UNL     1      -1.843  -3.620  -1.710  1.00  0.00     0.008 C 
ATOM     13  C   UNL     1       0.019  -3.182  -0.099  1.00  0.00     0.008 C 
ATOM     14  C   UNL     1       0.740  -2.184   0.796  1.00  0.00     0.046 C 
ATOM     15  C   UNL     1       1.206  -0.973  -0.006  1.00  0.00     0.184 C 
ATOM     16  C   UNL     1       0.051  -0.271  -0.739  1.00  0.00     0.079 C 
ATOM     17  C   UNL     1      -1.023   0.399   0.146  1.00  0.00     0.205 C 
ENDROOT
BRANCH  17  18
ATOM     18  O   UNL     1      -0.507   1.592   0.759  1.00  0.00    -0.461 OA
BRANCH  18  19
ATOM     19  C   UNL     1      -1.127   2.008   1.895  1.00  0.00     0.302 C 
ATOM     20  O   UNL     1      -2.024   1.410   2.473  1.00  0.00    -0.253 OA
ATOM     21  C   UNL     1      -0.570   3.317   2.361  1.00  0.00     0.139 C 
ENDBRANCH  18  19
ENDBRANCH  17  18
BRANCH  15  22
ATOM     22  O   UNL     1       1.894  -0.084   0.888  1.00  0.00    -0.459 OA
BRANCH  22  23
ATOM     23  C   UNL     1       2.977   0.545   0.358  1.00  0.00     0.333 C 
ATOM     24  O   UNL     1       3.341   0.505  -0.806  1.00  0.00    -0.247 OA
BRANCH  23  25
ATOM     25  C   UNL     1       3.698   1.272   1.435  1.00  0.00     0.030 C 
ATOM     26  C   UNL     1       5.034   1.169   1.569  1.00  0.00    -0.020 C 
ATOM     27  C   UNL     1       2.866   2.154   2.311  1.00  0.00     0.052 C 
ATOM     28  C   UNL     1       5.970   0.315   0.772  1.00  0.00     0.036 C 
ENDBRANCH  23  25
ENDBRANCH  22  23
ENDBRANCH  15  22
TORSDOF 5
