REMARK SMILES Cc1ccc2oc(=O)c3cnn(CC(=O)N4CCCCCC4)c3c2c1
REMARK SMILES IDX 14 1 15 2 16 3 13 4 12 5 2 6 3 7 25 8 4 9 24 10 5 11 23 12
REMARK SMILES IDX 6 13 9 14 7 15 11 16 10 17 8 18 1 19 17 20 18 21 22 23 21 24
REMARK SMILES IDX 20 25 19 26
REMARK H PARENT
REMARK Flexibility Score:   51.900
ROOT
ATOM      1  C   UNL     1       0.894   1.477   0.527  1.00  0.00     0.244 C 
ATOM      2  O   UNL     1       0.821   2.091  -0.539  1.00  0.00    -0.273 OA
ATOM      3  N   UNL     1       2.037   0.734   0.849  1.00  0.00    -0.341 N 
ENDROOT
BRANCH   1   4
ATOM      4  C   UNL     1      -0.242   1.459   1.532  1.00  0.00     0.244 C 
BRANCH   4   5
ATOM      5  N   UNL     1      -1.438   2.134   1.056  1.00  0.00    -0.254 N 
ATOM      6  C   UNL     1      -1.868  -1.616  -1.640  1.00  0.00    -0.050 A 
ATOM      7  C   UNL     1      -2.994  -1.601  -2.473  1.00  0.00     0.007 A 
ATOM      8  C   UNL     1      -1.624  -0.533  -0.773  1.00  0.00     0.017 A 
ATOM      9  C   UNL     1      -3.882  -0.531  -2.432  1.00  0.00     0.048 A 
ATOM     10  C   UNL     1      -2.502   0.551  -0.714  1.00  0.00     0.044 A 
ATOM     11  C   UNL     1      -3.629   0.525  -1.558  1.00  0.00     0.140 A 
ATOM     12  C   UNL     1      -2.380   1.724   0.141  1.00  0.00     0.087 A 
ATOM     13  O   UNL     1      -4.585   1.582  -1.573  1.00  0.00    -0.422 OA
ATOM     14  C   UNL     1      -3.324   2.736   0.118  1.00  0.00     0.106 A 
ATOM     15  C   UNL     1      -4.477   2.717  -0.746  1.00  0.00     0.347 C 
ATOM     16  N   UNL     1      -1.780   3.294   1.676  1.00  0.00    -0.179 NA
ATOM     17  C   UNL     1      -2.906   3.672   1.069  1.00  0.00     0.151 A 
ATOM     18  O   UNL     1      -5.318   3.609  -0.766  1.00  0.00    -0.246 OA
ATOM     19  C   UNL     1      -0.891  -2.755  -1.706  1.00  0.00     0.044 C 
ENDBRANCH   4   5
ENDBRANCH   1   4
BRANCH   3  20
ATOM     20  C   UNL     1       2.220  -0.019   2.090  1.00  0.00     0.119 C 
BRANCH  20  21
ATOM     21  C   UNL     1       1.991  -1.518   1.902  1.00  0.00     0.021 CG0
ATOM     22  G   UNL     1       2.418  -2.089   0.550  1.00  0.00     0.000 G0
ENDBRANCH  20  21
ENDBRANCH   3  20
BRANCH   3  23
ATOM     23  C   UNL     1       3.106   0.697  -0.157  1.00  0.00     0.119 C 
BRANCH  23  24
ATOM     24  C   UNL     1       4.247  -0.288   0.105  1.00  0.00     0.021 C 
BRANCH  24  25
ATOM     25  C   UNL     1       3.846  -1.766   0.116  1.00  0.00     0.002 C 
BRANCH  25  26
ATOM     26  C   UNL     1       2.418  -2.089   0.550  1.00  0.00     0.002 CG0
ATOM     27  G   UNL     1       1.991  -1.518   1.902  1.00  0.00     0.000 G0
ENDBRANCH  25  26
ENDBRANCH  24  25
ENDBRANCH  23  24
ENDBRANCH   3  23
TORSDOF 2
