REMARK SMILES COc1cc([C@H]2Oc3ccc4ccc(=O)oc4c3O[C@@H]2CO)ccc1O
REMARK SMILES IDX 6 1 7 2 8 3 9 4 10 5 11 6 12 7 13 8 14 9 15 10 16 11 17 12
REMARK SMILES IDX 18 13 19 14 20 15 5 16 3 17 4 18 25 19 24 20 23 21 2 22 1 23
REMARK SMILES IDX 26 24 21 26 22 27
REMARK H PARENT 26 25 22 28
ROOT
ATOM      1  C   UNL     1       0.425  -0.776   0.673  1.00  0.00     0.247 C 
ATOM      2  O   UNL     1       0.155   0.553   1.162  1.00  0.00    -0.478 OA
ATOM      3  C   UNL     1      -1.168   0.889   1.060  1.00  0.00     0.166 A 
ATOM      4  C   UNL     1      -1.580   2.012   1.779  1.00  0.00     0.051 A 
ATOM      5  C   UNL     1      -2.920   2.414   1.750  1.00  0.00     0.016 A 
ATOM      6  C   UNL     1      -3.849   1.693   0.997  1.00  0.00     0.022 A 
ATOM      7  C   UNL     1      -5.252   2.073   0.944  1.00  0.00     0.019 C 
ATOM      8  C   UNL     1      -6.102   1.354   0.205  1.00  0.00     0.094 C 
ATOM      9  C   UNL     1      -5.676   0.177  -0.571  1.00  0.00     0.336 C 
ATOM     10  O   UNL     1      -6.485  -0.458  -1.237  1.00  0.00    -0.246 OA
ATOM     11  O   UNL     1      -4.334  -0.164  -0.505  1.00  0.00    -0.419 OA
ATOM     12  C   UNL     1      -3.419   0.581   0.272  1.00  0.00     0.184 A 
ATOM     13  C   UNL     1      -2.083   0.177   0.283  1.00  0.00     0.205 A 
ATOM     14  O   UNL     1      -1.731  -0.915  -0.464  1.00  0.00    -0.476 OA
ATOM     15  C   UNL     1      -0.302  -1.005  -0.663  1.00  0.00     0.244 C 
ENDROOT
BRANCH   1  16
ATOM     16  C   UNL     1       1.933  -0.909   0.576  1.00  0.00     0.000 A 
ATOM     17  C   UNL     1       4.080  -0.129  -0.273  1.00  0.00     0.160 A 
ATOM     18  C   UNL     1       2.695   0.010  -0.174  1.00  0.00     0.058 A 
ATOM     19  C   UNL     1       4.699  -1.195   0.387  1.00  0.00     0.157 A 
ATOM     20  C   UNL     1       3.970  -2.110   1.135  1.00  0.00     0.050 A 
ATOM     21  C   UNL     1       2.587  -1.967   1.231  1.00  0.00     0.012 A 
BRANCH  17  22
ATOM     22  O   UNL     1       4.930   0.693  -0.969  1.00  0.00    -0.493 OA
ATOM     23  C   UNL     1       4.338   1.792  -1.652  1.00  0.00     0.278 C 
ENDBRANCH  17  22
BRANCH  19  24
ATOM     24  O   UNL     1       6.055  -1.360   0.309  1.00  0.00    -0.504 OA
ATOM     25  H   UNL     1       6.366  -0.623  -0.252  1.00  0.00     0.293 HD
ENDBRANCH  19  24
ENDBRANCH   1  16
BRANCH  15  26
ATOM     26  C   UNL     1      -0.042  -2.395  -1.250  1.00  0.00     0.205 C 
BRANCH  26  27
ATOM     27  O   UNL     1      -0.734  -2.540  -2.492  1.00  0.00    -0.392 OA
ATOM     28  H   UNL     1      -1.664  -2.292  -2.320  1.00  0.00     0.210 HD
ENDBRANCH  26  27
ENDBRANCH  15  26
TORSDOF 5
