REMARK SMILES Cc1cc(C)c(NC(=O)C2CCCN(S(=O)(=O)c3c(C)noc3/C=C/N(C)C)C2)c(C)c1
REMARK SMILES IDX 15 1 16 2 17 3 14 4 10 5 11 6 29 7 12 8 13 9 8 10 7 11 9 12
REMARK SMILES IDX 6 14 2 15 3 16 32 17 4 18 30 19 1 20 5 21 31 22 18 23 19 24
REMARK SMILES IDX 23 25 21 26 22 27 20 28 24 29 25 30 26 31 27 32 28 33
REMARK H PARENT 7 13
ROOT
ATOM      1  S   UNL     1       1.143  -1.569   0.014  1.00  0.00     0.248 S 
ATOM      2  O   UNL     1       0.308  -2.680  -0.383  1.00  0.00    -0.207 OA
ATOM      3  O   UNL     1       1.460  -1.345   1.406  1.00  0.00    -0.207 OA
ENDROOT
BRANCH   1   4
ATOM      4  N   UNL     1       0.419  -0.142  -0.589  1.00  0.00    -0.197 NA
ATOM      5  C   UNL     1      -1.013   0.972  -2.285  1.00  0.00     0.094 C 
ATOM      6  C   UNL     1      -0.545   2.320  -1.715  1.00  0.00     0.016 C 
ATOM      7  C   UNL     1      -0.046  -0.181  -2.001  1.00  0.00     0.116 C 
ATOM      8  C   UNL     1       0.879   2.249  -1.182  1.00  0.00     0.018 C 
ATOM      9  C   UNL     1       1.034   1.140  -0.148  1.00  0.00     0.102 C 
BRANCH   5  10
ATOM     10  C   UNL     1      -2.424   0.628  -1.812  1.00  0.00     0.228 C 
ATOM     11  N   UNL     1      -2.522   0.427  -0.448  1.00  0.00    -0.325 N 
ATOM     12  O   UNL     1      -3.336   0.540  -2.629  1.00  0.00    -0.274 OA
ATOM     13  H   UNL     1      -1.659   0.108  -0.018  1.00  0.00     0.169 HD
BRANCH  11  14
ATOM     14  C   UNL     1      -3.710   0.195   0.290  1.00  0.00     0.047 A 
ATOM     15  C   UNL     1      -6.017  -0.402   1.824  1.00  0.00    -0.050 A 
ATOM     16  C   UNL     1      -4.795  -1.003   2.122  1.00  0.00     0.009 A 
ATOM     17  C   UNL     1      -6.065   0.542   0.797  1.00  0.00     0.009 A 
ATOM     18  C   UNL     1      -3.640  -0.716   1.372  1.00  0.00    -0.027 A 
ATOM     19  C   UNL     1      -4.922   0.874   0.042  1.00  0.00    -0.027 A 
ATOM     20  C   UNL     1      -7.237  -0.706   2.639  1.00  0.00     0.044 C 
ATOM     21  C   UNL     1      -2.372  -1.446   1.734  1.00  0.00     0.046 C 
ATOM     22  C   UNL     1      -5.088   1.988  -0.957  1.00  0.00     0.046 C 
ENDBRANCH  11  14
ENDBRANCH   5  10
ENDBRANCH   1   4
BRANCH   1  23
ATOM     23  C   UNL     1       2.640  -1.835  -0.775  1.00  0.00     0.152 A 
ATOM     24  C   UNL     1       2.833  -2.612  -1.943  1.00  0.00     0.101 A 
ATOM     25  C   UNL     1       3.889  -1.329  -0.435  1.00  0.00     0.181 A 
ATOM     26  N   UNL     1       4.108  -2.558  -2.334  1.00  0.00    -0.083 NA
ATOM     27  O   UNL     1       4.755  -1.775  -1.412  1.00  0.00    -0.355 OA
ATOM     28  C   UNL     1       1.873  -3.421  -2.734  1.00  0.00     0.072 C 
BRANCH  25  29
ATOM     29  C   UNL     1       4.322  -0.516   0.653  1.00  0.00     0.069 C 
ATOM     30  C   UNL     1       5.500   0.124   0.618  1.00  0.00     0.084 C 
BRANCH  30  31
ATOM     31  N   UNL     1       6.068   0.959   1.574  1.00  0.00    -0.383 N 
ATOM     32  C   UNL     1       7.463   1.389   1.434  1.00  0.00     0.142 C 
ATOM     33  C   UNL     1       5.541   1.056   2.938  1.00  0.00     0.142 C 
ENDBRANCH  30  31
ENDBRANCH  25  29
ENDBRANCH   1  23
TORSDOF 6
