REMARK SMILES C=C1CCC[C@]2(C)C[C@]3(OC)OC(=O)C(C)=C3C[C@@H]12
REMARK SMILES IDX 1 1 2 2 3 3 4 4 5 5 6 6 7 7 8 8 9 9 12 10 13 11 14 12 15 13
REMARK SMILES IDX 16 14 17 15 18 16 19 17 10 18 11 19
REMARK H PARENT
ROOT
ATOM      1  C   UNL     1      -2.836   1.586  -1.303  1.00  0.00     0.008 C 
ATOM      2  C   UNL     1      -2.441   0.699  -0.373  1.00  0.00    -0.073 C 
ATOM      3  C   UNL     1      -3.466  -0.233   0.241  1.00  0.00     0.031 C 
ATOM      4  C   UNL     1      -2.938  -0.947   1.481  1.00  0.00     0.005 C 
ATOM      5  C   UNL     1      -1.632  -1.708   1.226  1.00  0.00     0.008 C 
ATOM      6  C   UNL     1      -0.642  -0.994   0.250  1.00  0.00    -0.019 C 
ATOM      7  C   UNL     1      -0.734  -1.708  -1.123  1.00  0.00     0.012 C 
ATOM      8  C   UNL     1       0.805  -1.144   0.825  1.00  0.00     0.092 C 
ATOM      9  C   UNL     1       1.877  -0.328   0.080  1.00  0.00     0.237 C 
ATOM     10  O   UNL     1       3.068  -0.234   0.854  1.00  0.00    -0.426 OA
ATOM     11  C   UNL     1       3.367   1.076   1.057  1.00  0.00     0.336 C 
ATOM     12  O   UNL     1       4.356   1.488   1.637  1.00  0.00    -0.246 OA
ATOM     13  C   UNL     1       2.292   1.918   0.517  1.00  0.00     0.040 C 
ATOM     14  C   UNL     1       2.297   3.388   0.683  1.00  0.00     0.052 C 
ATOM     15  C   UNL     1       1.415   1.078  -0.031  1.00  0.00     0.012 C 
ATOM     16  C   UNL     1       0.071   1.342  -0.626  1.00  0.00     0.047 C 
ATOM     17  C   UNL     1      -1.010   0.529   0.131  1.00  0.00     0.025 C 
ENDROOT
BRANCH   9  18
ATOM     18  O   UNL     1       2.135  -0.794  -1.240  1.00  0.00    -0.340 OA
ATOM     19  C   UNL     1       2.910  -1.983  -1.301  1.00  0.00     0.200 C 
ENDBRANCH   9  18
TORSDOF 1
