REMARK SMILES CCOC(=S)NCc1ccc(O[C@@H]2O[C@@H](C)[C@H](O)[C@@H](O)[C@H]2O)cc1
REMARK SMILES IDX 8 1 9 2 10 3 11 4 23 5 24 6 7 7 6 8 4 9 5 10 3 12 2 13 1 14
REMARK SMILES IDX 12 15 13 16 14 17 21 18 15 19 19 20 17 21 16 22 22 23 20 25
REMARK SMILES IDX 18 27
REMARK H PARENT 6 11 22 24 20 26 18 28
ROOT
ATOM      1  C   UNL     1       1.974   1.599  -0.139  1.00  0.00    -0.028 A 
ATOM      2  C   UNL     1       1.387   1.154   1.052  1.00  0.00     0.009 A 
ATOM      3  C   UNL     1       0.171   0.459   1.037  1.00  0.00     0.047 A 
ATOM      4  C   UNL     1      -0.468   0.193  -0.173  1.00  0.00     0.123 A 
ATOM      5  C   UNL     1       0.123   0.624  -1.363  1.00  0.00     0.047 A 
ATOM      6  C   UNL     1       1.335   1.319  -1.351  1.00  0.00     0.009 A 
ENDROOT
BRANCH   1   7
ATOM      7  C   UNL     1       3.299   2.315  -0.118  1.00  0.00     0.152 C 
BRANCH   7   8
ATOM      8  N   UNL     1       4.392   1.361  -0.169  1.00  0.00    -0.343 N 
ATOM      9  C   UNL     1       5.720   1.687  -0.100  1.00  0.00     0.256 C 
ATOM     10  S   UNL     1       6.376   3.203   0.096  1.00  0.00    -0.019 S 
ATOM     11  H   UNL     1       4.130   0.406  -0.352  1.00  0.00     0.164 HD
BRANCH   9  12
ATOM     12  O   UNL     1       6.623   0.681  -0.205  1.00  0.00    -0.471 OA
BRANCH  12  13
ATOM     13  C   UNL     1       6.242  -0.703  -0.308  1.00  0.00     0.229 C 
ATOM     14  C   UNL     1       7.507  -1.539  -0.313  1.00  0.00     0.049 C 
ENDBRANCH  12  13
ENDBRANCH   9  12
ENDBRANCH   7   8
ENDBRANCH   1   7
BRANCH   4  15
ATOM     15  O   UNL     1      -1.651  -0.467  -0.343  1.00  0.00    -0.462 OA
BRANCH  15  16
ATOM     16  C   UNL     1      -2.383  -0.890   0.804  1.00  0.00     0.339 C 
ATOM     17  O   UNL     1      -3.289  -1.962   0.460  1.00  0.00    -0.335 OA
ATOM     18  C   UNL     1      -3.207   0.253   1.431  1.00  0.00     0.214 C 
ATOM     19  C   UNL     1      -4.254  -1.590  -0.536  1.00  0.00     0.151 C 
ATOM     20  C   UNL     1      -4.290   0.722   0.454  1.00  0.00     0.180 C 
ATOM     21  C   UNL     1      -5.150  -0.451  -0.030  1.00  0.00     0.174 C 
ATOM     22  C   UNL     1      -5.073  -2.834  -0.865  1.00  0.00     0.042 C 
BRANCH  18  23
ATOM     23  O   UNL     1      -3.851  -0.179   2.649  1.00  0.00    -0.384 OA
ATOM     24  H   UNL     1      -4.047  -1.133   2.549  1.00  0.00     0.211 HD
ENDBRANCH  18  23
BRANCH  20  25
ATOM     25  O   UNL     1      -5.154   1.681   1.091  1.00  0.00    -0.387 OA
ATOM     26  H   UNL     1      -5.184   1.426   2.036  1.00  0.00     0.211 HD
ENDBRANCH  20  25
BRANCH  21  27
ATOM     27  O   UNL     1      -6.036   0.005  -1.055  1.00  0.00    -0.388 OA
ATOM     28  H   UNL     1      -6.406   0.849  -0.726  1.00  0.00     0.211 HD
ENDBRANCH  21  27
ENDBRANCH  15  16
ENDBRANCH   4  15
TORSDOF 9
