REMARK SMILES O=C1/C=C/CCc2ccc(O)c(c2)-c2cc(ccc2O)CC1
REMARK SMILES IDX 21 1 22 2 2 3 1 4 3 5 4 6 5 7 16 9 15 10 17 11 14 12 18 13
REMARK SMILES IDX 19 14 12 15 10 16 13 17 9 18 7 19 8 20 11 21 6 23 20 25
REMARK H PARENT 11 22 20 26
REMARK Flexibility Score:   33.900
ROOT
ATOM      1  C   UNL     1      -1.566   3.155   0.626  1.00  0.00     0.044 C 
ENDROOT
BRANCH   1   2
ATOM      2  C   UNL     1      -2.604   2.072   0.984  1.00  0.00     0.085 C 
BRANCH   2   3
ATOM      3  C   UNL     1      -2.887   1.089  -0.151  1.00  0.00     0.155 C 
ATOM      4  O   UNL     1      -3.243   1.467  -1.265  1.00  0.00    -0.295 OA
BRANCH   3   5
ATOM      5  C   UNL     1      -2.696  -0.372   0.145  1.00  0.00     0.043 C 
ATOM      6  C   UNL     1      -2.526  -1.272  -0.840  1.00  0.00    -0.023 C 
BRANCH   6   7
ATOM      7  C   UNL     1      -2.132  -2.716  -0.615  1.00  0.00     0.032 CG0
ATOM      8  G   UNL     1      -0.807  -3.146  -1.299  1.00  0.00     0.000 G0
ENDBRANCH   6   7
ENDBRANCH   3   5
ENDBRANCH   2   3
ENDBRANCH   1   2
BRANCH   1   9
ATOM      9  C   UNL     1      -0.127   2.725   0.420  1.00  0.00    -0.047 A 
ATOM     10  C   UNL     1       0.279   1.400   0.560  1.00  0.00     0.016 A 
ATOM     11  C   UNL     1       0.843   3.647   0.013  1.00  0.00     0.007 A 
ATOM     12  C   UNL     1       1.545   0.927   0.151  1.00  0.00     0.027 A 
ATOM     13  C   UNL     1       2.153   3.230  -0.268  1.00  0.00     0.047 A 
ATOM     14  C   UNL     1       2.497   1.879  -0.205  1.00  0.00     0.123 A 
BRANCH  12  15
ATOM     15  C   UNL     1       1.671  -0.539   0.009  1.00  0.00     0.027 A 
ATOM     16  C   UNL     1       2.623  -1.344   0.631  1.00  0.00     0.123 A 
ATOM     17  C   UNL     1       0.652  -1.187  -0.719  1.00  0.00     0.016 A 
ATOM     18  C   UNL     1       2.494  -2.738   0.616  1.00  0.00     0.047 A 
ATOM     19  C   UNL     1       0.441  -2.565  -0.669  1.00  0.00    -0.047 A 
ATOM     20  C   UNL     1       1.389  -3.342  -0.002  1.00  0.00     0.007 A 
BRANCH  16  21
ATOM     21  O   UNL     1       3.687  -0.756   1.259  1.00  0.00    -0.507 OA
ATOM     22  H   UNL     1       4.158  -1.437   1.769  1.00  0.00     0.293 HD
ENDBRANCH  16  21
BRANCH  19  23
ATOM     23  C   UNL     1      -0.807  -3.146  -1.299  1.00  0.00     0.039 CG0
ATOM     24  G   UNL     1      -2.132  -2.716  -0.615  1.00  0.00     0.000 G0
ENDBRANCH  19  23
ENDBRANCH  12  15
BRANCH  14  25
ATOM     25  O   UNL     1       3.784   1.545  -0.520  1.00  0.00    -0.507 OA
ATOM     26  H   UNL     1       3.943   0.666  -0.124  1.00  0.00     0.293 HD
ENDBRANCH  14  25
ENDBRANCH   1   9
TORSDOF 2
