REMARK SMILES Cc1sc(-n2cccc2)c(C(C)NC(=O)Nc2ccccc2Cl)c1C
REMARK SMILES IDX 13 1 14 2 15 3 16 4 11 7 12 8 10 9 2 10 3 11 24 12 4 13 1 14
REMARK SMILES IDX 25 15 5 16 6 17 9 18 7 19 8 20 17 21 18 22 22 23 19 24 21 25
REMARK SMILES IDX 20 26 23 27
REMARK H PARENT 13 5 16 6
ROOT
ATOM      1  N   UNL     1       0.487  -0.359  -0.039  1.00  0.00    -0.331 N 
ATOM      2  C   UNL     1       1.791  -0.025   0.268  1.00  0.00     0.319 C 
ATOM      3  O   UNL     1       2.160   0.241   1.403  1.00  0.00    -0.248 OA
ATOM      4  N   UNL     1       2.571  -0.055  -0.865  1.00  0.00    -0.307 N 
ATOM      5  H   UNL     1       0.190   0.006  -0.932  1.00  0.00     0.166 HD
ATOM      6  H   UNL     1       2.156  -0.500  -1.673  1.00  0.00     0.171 HD
ENDROOT
BRANCH   1   7
ATOM      7  C   UNL     1      -0.544  -0.338   0.991  1.00  0.00     0.114 C 
ATOM      8  C   UNL     1      -0.362  -1.436   2.042  1.00  0.00     0.036 C 
BRANCH   7   9
ATOM      9  C   UNL     1      -1.904  -0.428   0.305  1.00  0.00     0.013 A 
ATOM     10  C   UNL     1      -3.486  -1.160  -1.298  1.00  0.00     0.007 A 
ATOM     11  S   UNL     1      -4.282   0.130  -0.538  1.00  0.00    -0.122 S 
ATOM     12  C   UNL     1      -2.227  -1.387  -0.764  1.00  0.00    -0.030 A 
ATOM     13  C   UNL     1      -3.003   0.394   0.551  1.00  0.00     0.105 A 
ATOM     14  C   UNL     1      -4.169  -1.891  -2.410  1.00  0.00     0.057 C 
ATOM     15  C   UNL     1      -1.317  -2.468  -1.276  1.00  0.00     0.046 C 
BRANCH  13  16
ATOM     16  N   UNL     1      -3.210   1.379   1.546  1.00  0.00    -0.315 N 
ATOM     17  C   UNL     1      -4.149   2.407   1.530  1.00  0.00     0.092 A 
ATOM     18  C   UNL     1      -2.546   1.504   2.757  1.00  0.00     0.092 A 
ATOM     19  C   UNL     1      -4.033   3.174   2.668  1.00  0.00     0.020 A 
ATOM     20  C   UNL     1      -3.015   2.600   3.447  1.00  0.00     0.020 A 
ENDBRANCH  13  16
ENDBRANCH   7   9
ENDBRANCH   1   7
BRANCH   4  21
ATOM     21  C   UNL     1       3.938   0.279  -0.996  1.00  0.00     0.061 A 
ATOM     22  C   UNL     1       4.683   0.865   0.031  1.00  0.00     0.028 A 
ATOM     23  C   UNL     1       4.575   0.026  -2.226  1.00  0.00     0.064 A 
ATOM     24  C   UNL     1       6.033   1.181  -0.160  1.00  0.00     0.002 A 
ATOM     25  C   UNL     1       5.923   0.343  -2.417  1.00  0.00     0.023 A 
ATOM     26  C   UNL     1       6.653   0.920  -1.380  1.00  0.00     0.002 A 
ATOM     27  Cl  UNL     1       3.711  -0.688  -3.547  1.00  0.00    -0.082 Cl
ENDBRANCH   4  21
TORSDOF 4
