REMARK SMILES Cc1cc(C)c(NC(=O)CSc2nc3ccncc3[nH]2)c(C)c1
REMARK SMILES IDX 10 1 8 2 7 3 9 4 6 6 2 7 3 8 23 9 4 10 21 11 1 12 5 13 22 14
REMARK SMILES IDX 11 15 12 16 13 17 20 18 14 19 19 20 15 21 18 22 16 23 17 24
REMARK H PARENT 7 5 20 25
ROOT
ATOM      1  C   UNL     1       0.782  -0.079  -3.500  1.00  0.00     0.178 C 
ENDROOT
BRANCH   1   2
ATOM      2  C   UNL     1      -0.438  -0.592  -2.752  1.00  0.00     0.234 C 
ATOM      3  N   UNL     1      -0.342  -0.480  -1.375  1.00  0.00    -0.325 N 
ATOM      4  O   UNL     1      -1.360  -1.120  -3.370  1.00  0.00    -0.274 OA
ATOM      5  H   UNL     1       0.604  -0.325  -1.029  1.00  0.00     0.169 HD
BRANCH   3   6
ATOM      6  C   UNL     1      -1.309  -0.891  -0.425  1.00  0.00     0.047 A 
ATOM      7  C   UNL     1      -3.124  -1.812   1.548  1.00  0.00    -0.050 A 
ATOM      8  C   UNL     1      -3.585  -1.199   0.383  1.00  0.00     0.009 A 
ATOM      9  C   UNL     1      -1.749  -1.910   1.752  1.00  0.00     0.009 A 
ATOM     10  C   UNL     1      -2.698  -0.707  -0.597  1.00  0.00    -0.027 A 
ATOM     11  C   UNL     1      -0.835  -1.464   0.780  1.00  0.00    -0.027 A 
ATOM     12  C   UNL     1      -4.089  -2.282   2.595  1.00  0.00     0.044 C 
ATOM     13  C   UNL     1      -3.324   0.044  -1.742  1.00  0.00     0.046 C 
ATOM     14  C   UNL     1       0.633  -1.629   1.072  1.00  0.00     0.046 C 
ENDBRANCH   3   6
ENDBRANCH   1   2
BRANCH   1  15
ATOM     15  S   UNL     1       0.976   1.716  -3.310  1.00  0.00    -0.078 SA
BRANCH  15  16
ATOM     16  C   UNL     1       1.918   1.798  -1.872  1.00  0.00     0.166 A 
ATOM     17  N   UNL     1       2.281   0.804  -1.097  1.00  0.00    -0.223 NA
ATOM     18  N   UNL     1       2.375   3.004  -1.429  1.00  0.00    -0.332 N 
ATOM     19  C   UNL     1       3.057   1.394  -0.122  1.00  0.00     0.093 A 
ATOM     20  C   UNL     1       3.122   2.771  -0.305  1.00  0.00     0.085 A 
ATOM     21  C   UNL     1       3.738   0.816   0.949  1.00  0.00     0.051 A 
ATOM     22  C   UNL     1       3.833   3.599   0.545  1.00  0.00     0.139 A 
ATOM     23  C   UNL     1       4.434   1.696   1.764  1.00  0.00     0.113 A 
ATOM     24  N   UNL     1       4.490   3.038   1.587  1.00  0.00    -0.262 NA
ATOM     25  H   UNL     1       2.201   3.893  -1.873  1.00  0.00     0.169 HD
ENDBRANCH  15  16
ENDBRANCH   1  15
TORSDOF 4
