REMARK SMILES COc1cc(O)c2c(c1)CCc1cc(Oc3c(OC)cc(O)c4c3CCc3cc(O)ccc3-4)ccc1-2
REMARK SMILES IDX 15 1 14 2 3 3 4 4 9 5 5 6 8 7 7 8 10 9 36 10 11 11 35 12
REMARK SMILES IDX 12 13 34 14 13 15 2 16 1 17 6 18 16 20 17 21 24 22 20 23
REMARK SMILES IDX 23 24 25 25 21 26 33 27 26 28 32 29 27 30 31 31 28 32 29 33
REMARK SMILES IDX 18 34 19 35 22 36 30 38
REMARK H PARENT 6 19 22 37 30 39
ROOT
ATOM      1  O   UNL     1       1.332   1.355  -1.336  1.00  0.00    -0.453 OA
ENDROOT
BRANCH   1   2
ATOM      2  C   UNL     1       0.032   0.975  -1.072  1.00  0.00     0.127 A 
ATOM      3  C   UNL     1      -6.954  -0.570  -0.426  1.00  0.00     0.122 A 
ATOM      4  C   UNL     1      -6.041  -1.508   0.047  1.00  0.00     0.093 A 
ATOM      5  C   UNL     1      -6.478   0.591  -1.029  1.00  0.00     0.051 A 
ATOM      6  C   UNL     1      -4.661  -1.271  -0.063  1.00  0.00     0.127 A 
ATOM      7  C   UNL     1      -5.098   0.826  -1.154  1.00  0.00    -0.032 A 
ATOM      8  C   UNL     1      -4.148  -0.088  -0.634  1.00  0.00     0.027 A 
ATOM      9  C   UNL     1      -4.624   2.093  -1.827  1.00  0.00     0.041 C 
ATOM     10  C   UNL     1      -2.701   0.256  -0.756  1.00  0.00    -0.011 A 
ATOM     11  C   UNL     1      -3.336   1.846  -2.610  1.00  0.00     0.041 C 
ATOM     12  C   UNL     1      -1.698  -0.278   0.070  1.00  0.00     0.013 A 
ATOM     13  C   UNL     1      -2.295   1.203  -1.727  1.00  0.00    -0.036 A 
ATOM     14  C   UNL     1      -0.348   0.066  -0.088  1.00  0.00     0.048 A 
ATOM     15  C   UNL     1      -0.940   1.533  -1.897  1.00  0.00     0.051 A 
BRANCH   3  16
ATOM     16  O   UNL     1      -8.317  -0.670  -0.375  1.00  0.00    -0.497 OA
ATOM     17  C   UNL     1      -8.858  -1.822   0.258  1.00  0.00     0.278 C 
ENDBRANCH   3  16
BRANCH   6  18
ATOM     18  O   UNL     1      -3.811  -2.254   0.378  1.00  0.00    -0.507 OA
ATOM     19  H   UNL     1      -4.323  -3.043   0.616  1.00  0.00     0.293 HD
ENDBRANCH   6  18
ENDBRANCH   1   2
BRANCH   1  20
ATOM     20  C   UNL     1       2.243   1.269  -0.303  1.00  0.00     0.173 A 
ATOM     21  C   UNL     1       2.226   2.217   0.729  1.00  0.00     0.165 A 
ATOM     22  C   UNL     1       3.220   0.253  -0.350  1.00  0.00     0.011 A 
ATOM     23  C   UNL     1       3.167   2.107   1.749  1.00  0.00     0.097 A 
ATOM     24  C   UNL     1       4.218   0.164   0.656  1.00  0.00     0.031 A 
ATOM     25  C   UNL     1       3.241  -0.742  -1.492  1.00  0.00     0.045 C 
ATOM     26  C   UNL     1       4.134   1.089   1.717  1.00  0.00     0.127 A 
ATOM     27  C   UNL     1       5.254  -0.906   0.534  1.00  0.00    -0.011 A 
ATOM     28  C   UNL     1       3.673  -2.125  -1.006  1.00  0.00     0.041 C 
ATOM     29  C   UNL     1       6.519  -0.844   1.145  1.00  0.00     0.013 A 
ATOM     30  C   UNL     1       4.988  -2.037  -0.276  1.00  0.00    -0.036 A 
ATOM     31  C   UNL     1       7.454  -1.878   1.016  1.00  0.00     0.047 A 
ATOM     32  C   UNL     1       5.918  -3.082  -0.392  1.00  0.00     0.050 A 
ATOM     33  C   UNL     1       7.140  -2.994   0.255  1.00  0.00     0.115 A 
BRANCH  21  34
ATOM     34  O   UNL     1       1.275   3.199   0.643  1.00  0.00    -0.493 OA
ATOM     35  C   UNL     1       1.120   4.070   1.754  1.00  0.00     0.278 C 
ENDBRANCH  21  34
BRANCH  26  36
ATOM     36  O   UNL     1       4.998   1.004   2.781  1.00  0.00    -0.507 OA
ATOM     37  H   UNL     1       4.729   1.632   3.471  1.00  0.00     0.293 HD
ENDBRANCH  26  36
BRANCH  33  38
ATOM     38  O   UNL     1       8.018  -4.026   0.109  1.00  0.00    -0.508 OA
ATOM     39  H   UNL     1       8.818  -3.823   0.620  1.00  0.00     0.293 HD
ENDBRANCH  33  38
ENDBRANCH   1  20
TORSDOF 7
