REMARK SMILES COC(=O)c1c(O)c2ccccc2c2occc12
REMARK SMILES IDX 5 1 6 2 8 3 9 4 10 5 11 6 12 7 13 8 14 9 15 10 16 11 17 12
REMARK SMILES IDX 18 13 3 14 4 15 2 16 1 17 7 18
REMARK H PARENT 7 19
ROOT
ATOM      1  C   UNL     1      -1.008   0.514   0.053  1.00  0.00     0.113 A 
ATOM      2  C   UNL     1      -0.046   0.300   1.065  1.00  0.00     0.138 A 
ATOM      3  C   UNL     1       1.317   0.044   0.765  1.00  0.00     0.028 A 
ATOM      4  C   UNL     1       2.334  -0.136   1.731  1.00  0.00     0.013 A 
ATOM      5  C   UNL     1       3.660  -0.396   1.360  1.00  0.00     0.001 A 
ATOM      6  C   UNL     1       4.013  -0.475   0.015  1.00  0.00     0.001 A 
ATOM      7  C   UNL     1       3.045  -0.283  -0.966  1.00  0.00     0.013 A 
ATOM      8  C   UNL     1       1.713  -0.020  -0.592  1.00  0.00     0.029 A 
ATOM      9  C   UNL     1       0.731   0.208  -1.577  1.00  0.00     0.142 A 
ATOM     10  O   UNL     1       0.933   0.201  -2.929  1.00  0.00    -0.464 OA
ATOM     11  C   UNL     1      -0.259   0.477  -3.516  1.00  0.00     0.196 A 
ATOM     12  C   UNL     1      -1.233   0.657  -2.564  1.00  0.00     0.052 A 
ATOM     13  C   UNL     1      -0.603   0.484  -1.297  1.00  0.00     0.039 A 
ENDROOT
BRANCH   1  14
ATOM     14  C   UNL     1      -2.428   0.782   0.348  1.00  0.00     0.342 C 
ATOM     15  O   UNL     1      -3.081   1.655  -0.201  1.00  0.00    -0.246 OA
BRANCH  14  16
ATOM     16  O   UNL     1      -2.895  -0.139   1.228  1.00  0.00    -0.465 OA
ATOM     17  C   UNL     1      -4.273   0.028   1.558  1.00  0.00     0.282 C 
ENDBRANCH  14  16
ENDBRANCH   1  14
BRANCH   2  18
ATOM     18  O   UNL     1      -0.457   0.378   2.375  1.00  0.00    -0.506 OA
ATOM     19  H   UNL     1       0.039  -0.278   2.891  1.00  0.00     0.293 HD
ENDBRANCH   2  18
TORSDOF 3
