REMARK SMILES Cc1ccc(-c2noc(CSc3nnc(-c4ccc(Cl)cc4)n3C)n2)cc1
REMARK SMILES IDX 10 1 9 2 6 3 7 4 25 5 8 6 5 7 2 8 3 9 27 10 4 11 26 12 1 13
REMARK SMILES IDX 11 14 12 15 13 16 23 17 14 18 15 19 24 20 16 21 17 22 22 23
REMARK SMILES IDX 18 24 21 25 19 26 20 27
REMARK H PARENT
ROOT
ATOM      1  C   UNL     1      -1.216   3.294  -1.541  1.00  0.00     0.178 C 
ENDROOT
BRANCH   1   2
ATOM      2  C   UNL     1      -1.791   1.937  -1.386  1.00  0.00     0.237 A 
ATOM      3  C   UNL     1      -2.754   0.147  -0.843  1.00  0.00     0.202 A 
ATOM      4  N   UNL     1      -2.191  -0.137  -2.029  1.00  0.00    -0.057 NA
ATOM      5  N   UNL     1      -2.529   1.441  -0.417  1.00  0.00    -0.190 NA
ATOM      6  O   UNL     1      -1.552   1.047  -2.389  1.00  0.00    -0.338 OA
BRANCH   3   7
ATOM      7  C   UNL     1      -3.536  -0.805  -0.061  1.00  0.00     0.023 A 
ATOM      8  C   UNL     1      -5.040  -2.637   1.475  1.00  0.00    -0.051 A 
ATOM      9  C   UNL     1      -4.484  -3.025   0.251  1.00  0.00     0.004 A 
ATOM     10  C   UNL     1      -4.857  -1.323   1.918  1.00  0.00     0.004 A 
ATOM     11  C   UNL     1      -3.735  -2.119  -0.507  1.00  0.00     0.012 A 
ATOM     12  C   UNL     1      -4.107  -0.418   1.159  1.00  0.00     0.012 A 
ATOM     13  C   UNL     1      -5.873  -3.598   2.270  1.00  0.00     0.044 C 
ENDBRANCH   3   7
ENDBRANCH   1   2
BRANCH   1  14
ATOM     14  S   UNL     1       0.055   3.636  -0.281  1.00  0.00    -0.076 SA
BRANCH  14  15
ATOM     15  C   UNL     1       1.344   2.652  -0.874  1.00  0.00     0.191 A 
ATOM     16  N   UNL     1       1.556   2.341  -2.129  1.00  0.00    -0.123 NA
ATOM     17  N   UNL     1       2.302   2.080  -0.084  1.00  0.00    -0.305 N 
ATOM     18  N   UNL     1       2.659   1.526  -2.171  1.00  0.00    -0.129 NA
ATOM     19  C   UNL     1       3.085   1.327  -0.935  1.00  0.00     0.164 A 
ATOM     20  C   UNL     1       2.481   2.259   1.334  1.00  0.00     0.154 C 
BRANCH  19  21
ATOM     21  C   UNL     1       4.215   0.479  -0.562  1.00  0.00     0.019 A 
ATOM     22  C   UNL     1       5.425   0.600  -1.261  1.00  0.00     0.013 A 
ATOM     23  C   UNL     1       4.110  -0.483   0.452  1.00  0.00     0.013 A 
ATOM     24  C   UNL     1       6.521  -0.203  -0.931  1.00  0.00     0.021 A 
ATOM     25  C   UNL     1       5.205  -1.287   0.783  1.00  0.00     0.021 A 
ATOM     26  C   UNL     1       6.407  -1.141   0.093  1.00  0.00     0.041 A 
ATOM     27  Cl  UNL     1       7.753  -2.129   0.502  1.00  0.00    -0.084 Cl
ENDBRANCH  19  21
ENDBRANCH  14  15
ENDBRANCH   1  14
TORSDOF 5
