REMARK SMILES CC1(C)O[C@H]2CC(=O)OC[C@@]23[C@H]2CC[C@@]4(C)[C@H](c5ccoc5)OC(=O)[C@H]5O[C@@]54[C@]2(C)C(=O)C[C@@H]13
REMARK SMILES IDX 1 1 2 2 3 3 4 4 5 5 6 6 7 7 8 8 9 9 10 10 11 11 34 12 33 13
REMARK SMILES IDX 31 14 32 15 29 16 30 17 12 18 13 19 14 20 15 21 16 22 17 23
REMARK SMILES IDX 23 24 24 25 25 26 26 27 27 28 28 29 18 30 19 31 22 32 20 33
REMARK SMILES IDX 21 34
REMARK H PARENT
ROOT
ATOM      1  C   UNL     1      -3.256  -2.777  -0.814  1.00  0.00     0.042 C 
ATOM      2  C   UNL     1      -3.615  -1.348  -0.405  1.00  0.00     0.067 C 
ATOM      3  C   UNL     1      -5.151  -1.226  -0.528  1.00  0.00     0.042 C 
ATOM      4  O   UNL     1      -3.240  -1.195   0.989  1.00  0.00    -0.371 OA
ATOM      5  C   UNL     1      -3.103   0.198   1.191  1.00  0.00     0.140 C 
ATOM      6  C   UNL     1      -2.634   0.669   2.528  1.00  0.00     0.155 C 
ATOM      7  C   UNL     1      -2.645   2.178   2.529  1.00  0.00     0.308 C 
ATOM      8  O   UNL     1      -2.568   2.811   3.577  1.00  0.00    -0.252 OA
ATOM      9  O   UNL     1      -2.681   2.826   1.331  1.00  0.00    -0.465 OA
ATOM     10  C   UNL     1      -2.776   2.205   0.014  1.00  0.00     0.243 C 
ATOM     11  C   UNL     1      -2.305   0.735   0.008  1.00  0.00     0.041 C 
ATOM     12  C   UNL     1      -2.922  -0.137  -1.137  1.00  0.00     0.040 C 
ATOM     13  C   UNL     1      -1.926  -0.513  -2.227  1.00  0.00     0.083 C 
ATOM     14  C   UNL     1      -0.746  -1.255  -1.657  1.00  0.00     0.142 C 
ATOM     15  O   UNL     1      -0.409  -2.337  -2.141  1.00  0.00    -0.299 OA
ATOM     16  C   UNL     1       0.027  -0.597  -0.495  1.00  0.00     0.063 C 
ATOM     17  C   UNL     1       0.023  -1.619   0.658  1.00  0.00     0.023 C 
ATOM     18  C   UNL     1      -0.705   0.730  -0.085  1.00  0.00     0.018 C 
ATOM     19  C   UNL     1       0.098   1.403   1.048  1.00  0.00     0.006 C 
ATOM     20  C   UNL     1       1.484   1.822   0.564  1.00  0.00     0.014 C 
ATOM     21  C   UNL     1       2.332   0.730  -0.132  1.00  0.00     0.042 C 
ATOM     22  C   UNL     1       3.342   1.545  -0.998  1.00  0.00     0.019 C 
ATOM     23  C   UNL     1       3.062  -0.224   0.918  1.00  0.00     0.219 C 
ATOM     24  O   UNL     1       3.042  -1.671   0.590  1.00  0.00    -0.455 OA
ATOM     25  C   UNL     1       2.725  -2.201  -0.635  1.00  0.00     0.339 C 
ATOM     26  O   UNL     1       2.672  -3.400  -0.855  1.00  0.00    -0.249 OA
ATOM     27  C   UNL     1       2.595  -1.191  -1.683  1.00  0.00     0.262 C 
ATOM     28  O   UNL     1       1.614  -0.417  -2.337  1.00  0.00    -0.352 OA
ATOM     29  C   UNL     1       1.486  -0.195  -0.972  1.00  0.00     0.128 C 
ENDROOT
BRANCH  23  30
ATOM     30  C   UNL     1       4.450   0.193   1.309  1.00  0.00     0.031 A 
ATOM     31  C   UNL     1       5.688  -0.346   0.848  1.00  0.00     0.049 A 
ATOM     32  C   UNL     1       4.801   1.171   2.220  1.00  0.00     0.202 A 
ATOM     33  C   UNL     1       6.684   0.350   1.491  1.00  0.00     0.195 A 
ATOM     34  O   UNL     1       6.149   1.277   2.323  1.00  0.00    -0.472 OA
ENDBRANCH  23  30
TORSDOF 1
