REMARK SMILES O=C(c1cccs1)n1nc(-c2cccnc2)nc1NCc1ccco1
REMARK SMILES IDX 8 1 9 2 10 3 17 4 18 5 2 6 1 7 3 8 4 9 7 10 5 11 6 12 19 13
REMARK SMILES IDX 20 15 21 16 22 17 25 18 23 19 24 20 11 21 12 22 16 23 13 24
REMARK SMILES IDX 15 25 14 26
REMARK H PARENT 19 14
ROOT
ATOM      1  N   UNL     1      -0.453  -0.816  -0.004  1.00  0.00    -0.159 N 
ATOM      2  N   UNL     1      -1.717  -0.335   0.159  1.00  0.00    -0.141 NA
ATOM      3  C   UNL     1      -1.540   0.991   0.133  1.00  0.00     0.185 A 
ATOM      4  N   UNL     1      -0.233   1.380  -0.017  1.00  0.00    -0.191 NA
ATOM      5  C   UNL     1       0.436   0.254  -0.102  1.00  0.00     0.229 A 
ENDROOT
BRANCH   1   6
ATOM      6  C   UNL     1      -0.161  -2.201   0.020  1.00  0.00     0.291 C 
ATOM      7  O   UNL     1       1.036  -2.489   0.112  1.00  0.00    -0.266 OA
BRANCH   6   8
ATOM      8  C   UNL     1      -1.169  -3.261  -0.012  1.00  0.00     0.094 A 
ATOM      9  C   UNL     1      -1.022  -4.540   0.500  1.00  0.00     0.026 A 
ATOM     10  S   UNL     1      -2.672  -3.099  -0.818  1.00  0.00    -0.139 S 
ATOM     11  C   UNL     1      -2.167  -5.359   0.279  1.00  0.00     0.012 A 
ATOM     12  C   UNL     1      -3.145  -4.691  -0.421  1.00  0.00     0.065 A 
ENDBRANCH   6   8
ENDBRANCH   1   6
BRANCH   5  13
ATOM     13  N   UNL     1       1.770   0.108  -0.281  1.00  0.00    -0.347 N 
ATOM     14  H   UNL     1       2.192  -0.804  -0.078  1.00  0.00     0.164 HD
BRANCH  13  15
ATOM     15  C   UNL     1       2.642   1.230   0.030  1.00  0.00     0.191 C 
BRANCH  15  16
ATOM     16  C   UNL     1       4.077   0.952  -0.265  1.00  0.00     0.122 A 
ATOM     17  C   UNL     1       4.900   1.245  -1.333  1.00  0.00     0.047 A 
ATOM     18  O   UNL     1       4.769   0.247   0.677  1.00  0.00    -0.467 OA
ATOM     19  C   UNL     1       6.166   0.694  -1.023  1.00  0.00     0.042 A 
ATOM     20  C   UNL     1       6.034   0.097   0.209  1.00  0.00     0.195 A 
ENDBRANCH  15  16
ENDBRANCH  13  15
ENDBRANCH   5  13
BRANCH   3  21
ATOM     21  C   UNL     1      -2.621   1.954   0.259  1.00  0.00     0.039 A 
ATOM     22  C   UNL     1      -2.377   3.331   0.233  1.00  0.00     0.015 A 
ATOM     23  C   UNL     1      -3.944   1.549   0.410  1.00  0.00     0.123 A 
ATOM     24  C   UNL     1      -3.437   4.228   0.356  1.00  0.00     0.021 A 
ATOM     25  N   UNL     1      -4.997   2.398   0.532  1.00  0.00    -0.264 NA
ATOM     26  C   UNL     1      -4.716   3.718   0.502  1.00  0.00     0.111 A 
ENDBRANCH   3  21
TORSDOF 6
