REMARK SMILES COc1ccc(CCNC(=O)CCc2c(C)c3cc4c(C)coc4cc3oc2=O)cc1
REMARK SMILES IDX 9 1 10 2 11 3 8 5 7 6 6 7 3 8 4 9 31 10 5 11 30 12 2 13 1 14
REMARK SMILES IDX 12 15 13 16 14 17 15 18 28 19 17 20 27 21 29 22 18 23 26 24
REMARK SMILES IDX 19 25 25 26 20 27 24 28 22 29 23 30 16 31 21 32
REMARK H PARENT 9 4
ROOT
ATOM      1  N   UNL     1       2.167   0.862   0.843  1.00  0.00    -0.356 N 
ATOM      2  C   UNL     1       1.268  -0.183   0.879  1.00  0.00     0.220 C 
ATOM      3  O   UNL     1       1.601  -1.359   0.796  1.00  0.00    -0.275 OA
ATOM      4  H   UNL     1       1.832   1.811   0.952  1.00  0.00     0.163 HD
ENDROOT
BRANCH   1   5
ATOM      5  C   UNL     1       3.597   0.636   0.757  1.00  0.00     0.120 C 
BRANCH   5   6
ATOM      6  C   UNL     1       4.046   0.305  -0.669  1.00  0.00     0.057 C 
BRANCH   6   7
ATOM      7  C   UNL     1       5.540   0.124  -0.757  1.00  0.00    -0.046 A 
ATOM      8  C   UNL     1       8.334  -0.208  -0.878  1.00  0.00     0.118 A 
ATOM      9  C   UNL     1       7.758   1.023  -1.194  1.00  0.00     0.046 A 
ATOM     10  C   UNL     1       7.508  -1.268  -0.499  1.00  0.00     0.046 A 
ATOM     11  C   UNL     1       6.369   1.188  -1.132  1.00  0.00     0.007 A 
ATOM     12  C   UNL     1       6.122  -1.107  -0.436  1.00  0.00     0.007 A 
BRANCH   8  13
ATOM     13  O   UNL     1       9.669  -0.501  -0.898  1.00  0.00    -0.497 OA
ATOM     14  C   UNL     1      10.551   0.544  -1.286  1.00  0.00     0.278 C 
ENDBRANCH   8  13
ENDBRANCH   6   7
ENDBRANCH   5   6
ENDBRANCH   1   5
BRANCH   2  15
ATOM     15  C   UNL     1      -0.172   0.277   0.979  1.00  0.00     0.105 C 
BRANCH  15  16
ATOM     16  C   UNL     1      -1.111  -0.885   1.301  1.00  0.00     0.053 C 
BRANCH  16  17
ATOM     17  C   UNL     1      -2.565  -0.456   1.307  1.00  0.00     0.042 C 
ATOM     18  C   UNL     1      -3.425  -0.624   0.277  1.00  0.00    -0.030 C 
ATOM     19  C   UNL     1      -2.997   0.168   2.591  1.00  0.00     0.339 C 
ATOM     20  C   UNL     1      -4.839  -0.224   0.446  1.00  0.00     0.022 A 
ATOM     21  O   UNL     1      -4.324   0.534   2.706  1.00  0.00    -0.422 OA
ATOM     22  O   UNL     1      -2.206   0.371   3.507  1.00  0.00    -0.246 OA
ATOM     23  C   UNL     1      -5.814  -0.399  -0.558  1.00  0.00     0.024 A 
ATOM     24  C   UNL     1      -5.241   0.342   1.658  1.00  0.00     0.142 A 
ATOM     25  C   UNL     1      -7.148   0.003  -0.327  1.00  0.00     0.024 A 
ATOM     26  C   UNL     1      -6.551   0.754   1.929  1.00  0.00     0.095 A 
ATOM     27  C   UNL     1      -8.364  -0.014  -1.078  1.00  0.00    -0.005 A 
ATOM     28  C   UNL     1      -7.465   0.563   0.903  1.00  0.00     0.137 A 
ATOM     29  C   UNL     1      -9.320   0.538  -0.248  1.00  0.00     0.199 A 
ATOM     30  O   UNL     1      -8.784   0.889   0.948  1.00  0.00    -0.464 OA
ATOM     31  C   UNL     1      -3.022  -1.193  -1.061  1.00  0.00     0.046 C 
ATOM     32  C   UNL     1      -8.562  -0.517  -2.457  1.00  0.00     0.048 C 
ENDBRANCH  16  17
ENDBRANCH  15  16
ENDBRANCH   2  15
TORSDOF 7
