REMARK SMILES c1ccc2c(c1)C[C@H]1NCCc3cc4c(c-2c31)OCO4
REMARK SMILES IDX 1 1 2 2 3 3 4 4 5 5 6 6 7 7 8 8 9 9 10 10 11 11 12 12 13 13
REMARK SMILES IDX 14 14 15 15 16 16 17 17 18 18 19 19 20 20
REMARK H PARENT 9 21
ROOT
ATOM      1  C   UNL     1       3.724   2.210  -0.499  1.00  0.00     0.000 A 
ATOM      2  C   UNL     1       3.964   0.978   0.099  1.00  0.00     0.001 A 
ATOM      3  C   UNL     1       2.910   0.084   0.315  1.00  0.00     0.009 A 
ATOM      4  C   UNL     1       1.593   0.392  -0.064  1.00  0.00    -0.011 A 
ATOM      5  C   UNL     1       1.367   1.667  -0.636  1.00  0.00    -0.038 A 
ATOM      6  C   UNL     1       2.429   2.556  -0.867  1.00  0.00     0.004 A 
ATOM      7  C   UNL     1      -0.037   2.058  -1.035  1.00  0.00     0.060 C 
ATOM      8  C   UNL     1      -1.067   1.497  -0.037  1.00  0.00     0.089 C 
ATOM      9  N   UNL     1      -2.427   1.867  -0.482  1.00  0.00    -0.309 NA
ATOM     10  C   UNL     1      -3.416   1.260   0.413  1.00  0.00     0.086 C 
ATOM     11  C   UNL     1      -3.406  -0.268   0.309  1.00  0.00     0.051 C 
ATOM     12  C   UNL     1      -2.011  -0.845   0.336  1.00  0.00    -0.037 A 
ATOM     13  C   UNL     1      -1.841  -2.222   0.501  1.00  0.00     0.054 A 
ATOM     14  C   UNL     1      -0.558  -2.719   0.469  1.00  0.00     0.166 A 
ATOM     15  C   UNL     1       0.548  -1.912   0.289  1.00  0.00     0.173 A 
ATOM     16  C   UNL     1       0.445  -0.531   0.129  1.00  0.00     0.033 A 
ATOM     17  C   UNL     1      -0.880  -0.007   0.129  1.00  0.00    -0.016 A 
ATOM     18  O   UNL     1       1.694  -2.656   0.268  1.00  0.00    -0.453 OA
ATOM     19  C   UNL     1       1.187  -3.987   0.461  1.00  0.00     0.468 C 
ATOM     20  O   UNL     1      -0.243  -4.038   0.594  1.00  0.00    -0.454 OA
ATOM     21  H   UNL     1      -2.564   1.502  -1.425  1.00  0.00     0.123 HD
ENDROOT
TORSDOF 0
