REMARK SMILES COc1ccc(C(CNC(=O)COc2ccc([N+](=O)[O-])cc2)N2CCCCC2)cc1
REMARK SMILES IDX 9 1 10 2 11 3 8 5 7 6 6 7 3 8 4 9 30 10 5 11 29 12 2 13 1 14
REMARK SMILES IDX 23 15 24 16 28 17 25 18 27 19 26 20 12 21 13 22 14 23 15 24
REMARK SMILES IDX 22 25 16 26 21 27 17 28 18 29 19 30 20 31
REMARK H PARENT 9 4
ROOT
ATOM      1  N   UNL     1       0.707   1.057   1.220  1.00  0.00    -0.351 N 
ATOM      2  C   UNL     1       1.722   1.346   0.322  1.00  0.00     0.258 C 
ATOM      3  O   UNL     1       1.591   2.158  -0.589  1.00  0.00    -0.271 OA
ATOM      4  H   UNL     1       0.749   0.158   1.684  1.00  0.00     0.163 HD
ENDROOT
BRANCH   1   5
ATOM      5  C   UNL     1      -0.646   1.551   0.981  1.00  0.00     0.140 C 
BRANCH   5   6
ATOM      6  C   UNL     1      -1.423   0.642  -0.020  1.00  0.00     0.106 C 
BRANCH   6   7
ATOM      7  C   UNL     1      -2.803   1.185  -0.387  1.00  0.00    -0.029 A 
ATOM      8  C   UNL     1      -5.348   2.169  -1.151  1.00  0.00     0.118 A 
ATOM      9  C   UNL     1      -4.914   2.286   0.168  1.00  0.00     0.047 A 
ATOM     10  C   UNL     1      -4.511   1.563  -2.087  1.00  0.00     0.047 A 
ATOM     11  C   UNL     1      -3.654   1.800   0.545  1.00  0.00     0.009 A 
ATOM     12  C   UNL     1      -3.254   1.078  -1.713  1.00  0.00     0.009 A 
BRANCH   8  13
ATOM     13  O   UNL     1      -6.547   2.598  -1.647  1.00  0.00    -0.497 OA
ATOM     14  C   UNL     1      -7.422   3.252  -0.737  1.00  0.00     0.278 C 
ENDBRANCH   8  13
ENDBRANCH   6   7
BRANCH   6  15
ATOM     15  N   UNL     1      -1.394  -0.782   0.420  1.00  0.00    -0.295 NA
ATOM     16  C   UNL     1      -1.730  -1.731  -0.640  1.00  0.00     0.085 C 
ATOM     17  C   UNL     1      -2.098  -1.074   1.675  1.00  0.00     0.085 C 
ATOM     18  C   UNL     1      -1.222  -3.130  -0.268  1.00  0.00     0.016 C 
ATOM     19  C   UNL     1      -2.411  -2.566   1.873  1.00  0.00     0.016 C 
ATOM     20  C   UNL     1      -1.357  -3.448   1.222  1.00  0.00     0.003 C 
ENDBRANCH   6  15
ENDBRANCH   5   6
ENDBRANCH   1   5
BRANCH   2  21
ATOM     21  C   UNL     1       3.008   0.558   0.595  1.00  0.00     0.329 C 
BRANCH  21  22
ATOM     22  O   UNL     1       4.006   0.853  -0.371  1.00  0.00    -0.484 OA
BRANCH  22  23
ATOM     23  C   UNL     1       5.208   0.217  -0.251  1.00  0.00     0.120 A 
ATOM     24  C   UNL     1       6.140   0.551  -1.240  1.00  0.00     0.053 A 
ATOM     25  C   UNL     1       5.558  -0.701   0.742  1.00  0.00     0.053 A 
ATOM     26  C   UNL     1       7.415  -0.021  -1.247  1.00  0.00     0.089 A 
ATOM     27  C   UNL     1       6.832  -1.282   0.746  1.00  0.00     0.089 A 
ATOM     28  C   UNL     1       7.756  -0.940  -0.249  1.00  0.00     0.269 A 
BRANCH  28  29
ATOM     29  N   UNL     1       9.092  -1.549  -0.244  1.00  0.00     0.062 N 
ATOM     30  O   UNL     1       9.351  -2.359   0.658  1.00  0.00    -0.258 OA
ATOM     31  O   UNL     1       9.881  -1.220  -1.141  1.00  0.00    -0.258 OA
ENDBRANCH  28  29
ENDBRANCH  22  23
ENDBRANCH  21  22
ENDBRANCH   2  21
TORSDOF 9
