REMARK SMILES COc1ccc(-c2noc(CN(C)S(=O)(=O)c3ccccc3)n2)cc1OC
REMARK SMILES IDX 7 1 8 2 9 3 10 4 23 5 6 6 3 7 4 8 25 9 5 10 24 11 2 12 1 13
REMARK SMILES IDX 26 14 27 15 11 16 12 17 13 18 14 19 15 20 16 21 17 22 18 23
REMARK SMILES IDX 22 24 19 25 21 26 20 27
REMARK H PARENT
ROOT
ATOM      1  C   UNL     1       1.026   1.485   0.933  1.00  0.00     0.202 A 
ATOM      2  N   UNL     1       1.031   2.234   2.049  1.00  0.00    -0.057 NA
ATOM      3  O   UNL     1      -0.311   2.544   2.249  1.00  0.00    -0.338 OA
ATOM      4  C   UNL     1      -0.999   1.958   1.229  1.00  0.00     0.242 A 
ATOM      5  N   UNL     1      -0.226   1.325   0.376  1.00  0.00    -0.190 NA
ENDROOT
BRANCH   1   6
ATOM      6  C   UNL     1       2.222   0.902   0.332  1.00  0.00     0.027 A 
ATOM      7  C   UNL     1       4.520  -0.229  -0.849  1.00  0.00     0.160 A 
ATOM      8  C   UNL     1       4.625   0.529   0.321  1.00  0.00     0.051 A 
ATOM      9  C   UNL     1       3.254  -0.428  -1.435  1.00  0.00     0.161 A 
ATOM     10  C   UNL     1       3.484   1.089   0.906  1.00  0.00     0.016 A 
ATOM     11  C   UNL     1       2.118   0.139  -0.842  1.00  0.00     0.062 A 
BRANCH   7  12
ATOM     12  O   UNL     1       5.582  -0.814  -1.492  1.00  0.00    -0.493 OA
ATOM     13  C   UNL     1       6.869  -0.665  -0.911  1.00  0.00     0.278 C 
ENDBRANCH   7  12
BRANCH   9  14
ATOM     14  O   UNL     1       3.232  -1.183  -2.582  1.00  0.00    -0.493 OA
ATOM     15  C   UNL     1       1.967  -1.477  -3.156  1.00  0.00     0.278 C 
ENDBRANCH   9  14
ENDBRANCH   1   6
BRANCH   4  16
ATOM     16  C   UNL     1      -2.471   2.162   1.204  1.00  0.00     0.202 C 
BRANCH  16  17
ATOM     17  N   UNL     1      -3.247   1.316   2.154  1.00  0.00    -0.192 NA
ATOM     18  C   UNL     1      -3.176   1.794   3.553  1.00  0.00     0.125 C 
BRANCH  17  19
ATOM     19  S   UNL     1      -3.095  -0.378   2.017  1.00  0.00     0.243 S 
ATOM     20  O   UNL     1      -4.147  -0.972   2.815  1.00  0.00    -0.207 OA
ATOM     21  O   UNL     1      -1.711  -0.725   2.257  1.00  0.00    -0.207 OA
BRANCH  19  22
ATOM     22  C   UNL     1      -3.484  -0.692   0.316  1.00  0.00     0.082 A 
ATOM     23  C   UNL     1      -2.479  -1.088  -0.572  1.00  0.00     0.022 A 
ATOM     24  C   UNL     1      -4.808  -0.563  -0.112  1.00  0.00     0.022 A 
ATOM     25  C   UNL     1      -2.803  -1.334  -1.905  1.00  0.00     0.001 A 
ATOM     26  C   UNL     1      -5.124  -0.812  -1.447  1.00  0.00     0.001 A 
ATOM     27  C   UNL     1      -4.122  -1.194  -2.342  1.00  0.00     0.000 A 
ENDBRANCH  19  22
ENDBRANCH  17  19
ENDBRANCH  16  17
ENDBRANCH   4  16
TORSDOF 7
