REMARK SMILES COc1cc(O)cc2c1C(=O)C[C@@H](c1ccccc1)O2
REMARK SMILES IDX 3 1 4 2 5 3 7 4 8 5 9 6 10 7 11 8 12 9 13 10 20 11 2 12 1 13
REMARK SMILES IDX 6 14 14 16 15 17 19 18 16 19 18 20 17 21
REMARK H PARENT 6 15
ROOT
ATOM      1  C   UNL     1      -2.987  -0.203  -0.078  1.00  0.00     0.137 A 
ATOM      2  C   UNL     1      -3.586   1.057   0.047  1.00  0.00     0.093 A 
ATOM      3  C   UNL     1      -2.803   2.206   0.124  1.00  0.00     0.123 A 
ATOM      4  C   UNL     1      -1.419   2.131   0.090  1.00  0.00     0.093 A 
ATOM      5  C   UNL     1      -0.810   0.881  -0.013  1.00  0.00     0.138 A 
ATOM      6  C   UNL     1      -1.581  -0.288  -0.114  1.00  0.00     0.102 A 
ATOM      7  C   UNL     1      -0.849  -1.574  -0.293  1.00  0.00     0.174 C 
ATOM      8  O   UNL     1      -1.396  -2.671  -0.293  1.00  0.00    -0.294 OA
ATOM      9  C   UNL     1       0.632  -1.466  -0.527  1.00  0.00     0.131 C 
ATOM     10  C   UNL     1       1.155  -0.345   0.351  1.00  0.00     0.211 C 
ATOM     11  O   UNL     1       0.562   0.905  -0.031  1.00  0.00    -0.484 OA
ENDROOT
BRANCH   1  12
ATOM     12  O   UNL     1      -3.697  -1.368  -0.180  1.00  0.00    -0.496 OA
ATOM     13  C   UNL     1      -5.115  -1.305  -0.122  1.00  0.00     0.278 C 
ENDBRANCH   1  12
BRANCH   3  14
ATOM     14  O   UNL     1      -3.447   3.403   0.235  1.00  0.00    -0.508 OA
ATOM     15  H   UNL     1      -2.787   4.116   0.276  1.00  0.00     0.293 HD
ENDBRANCH   3  14
BRANCH  10  16
ATOM     16  C   UNL     1       2.663  -0.226   0.230  1.00  0.00    -0.007 A 
ATOM     17  C   UNL     1       3.492  -0.801   1.205  1.00  0.00     0.007 A 
ATOM     18  C   UNL     1       3.260   0.421  -0.864  1.00  0.00     0.007 A 
ATOM     19  C   UNL     1       4.882  -0.722   1.095  1.00  0.00     0.000 A 
ATOM     20  C   UNL     1       4.650   0.500  -0.972  1.00  0.00     0.000 A 
ATOM     21  C   UNL     1       5.460  -0.070   0.007  1.00  0.00     0.000 A 
ENDBRANCH  10  16
TORSDOF 3
