REMARK SMILES Cn1c(=O)c2c(ncn2Cc2cccc(Cl)c2)n(C)c1=O
REMARK SMILES IDX 10 1 9 2 2 3 3 4 20 5 4 6 5 7 18 8 21 9 6 10 7 11 8 12 1 13
REMARK SMILES IDX 19 14 11 15 12 16 17 17 13 18 15 19 14 20 16 21
REMARK H PARENT
ROOT
ATOM      1  C   UNL     1       1.414   0.046   1.694  1.00  0.00     0.159 C 
ENDROOT
BRANCH   1   2
ATOM      2  N   UNL     1       0.211   0.668   1.171  1.00  0.00    -0.320 N 
ATOM      3  N   UNL     1      -2.398  -1.469  -0.334  1.00  0.00    -0.261 N 
ATOM      4  C   UNL     1      -1.168  -1.301   0.309  1.00  0.00     0.282 C 
ATOM      5  C   UNL     1      -3.317  -0.442  -0.630  1.00  0.00     0.332 C 
ATOM      6  O   UNL     1      -0.418  -2.224   0.613  1.00  0.00    -0.267 OA
ATOM      7  C   UNL     1      -0.873   0.061   0.595  1.00  0.00     0.152 A 
ATOM      8  N   UNL     1      -2.945   0.860  -0.300  1.00  0.00    -0.279 N 
ATOM      9  O   UNL     1      -4.406  -0.697  -1.154  1.00  0.00    -0.247 OA
ATOM     10  C   UNL     1      -1.730   1.080   0.302  1.00  0.00     0.167 A 
ATOM     11  N   UNL     1      -1.240   2.290   0.688  1.00  0.00    -0.218 NA
ATOM     12  C   UNL     1      -0.065   2.013   1.215  1.00  0.00     0.203 A 
ATOM     13  C   UNL     1      -2.807  -2.816  -0.681  1.00  0.00     0.159 C 
ATOM     14  C   UNL     1      -3.831   1.975  -0.578  1.00  0.00     0.157 C 
ENDBRANCH   1   2
BRANCH   1  15
ATOM     15  C   UNL     1       2.512   0.010   0.661  1.00  0.00    -0.027 A 
ATOM     16  C   UNL     1       2.700  -1.124  -0.144  1.00  0.00     0.005 A 
ATOM     17  C   UNL     1       3.355   1.118   0.472  1.00  0.00     0.026 A 
ATOM     18  C   UNL     1       3.706  -1.153  -1.113  1.00  0.00     0.002 A 
ATOM     19  C   UNL     1       4.358   1.082  -0.497  1.00  0.00     0.041 A 
ATOM     20  C   UNL     1       4.537  -0.048  -1.290  1.00  0.00     0.020 A 
ATOM     21  Cl  UNL     1       5.383   2.448  -0.712  1.00  0.00    -0.084 Cl
ENDBRANCH   1  15
TORSDOF 2
