REMARK SMILES COc1ccc(OCC(=O)N2CCN(CCc3ccncc3)CC2)cc1
REMARK SMILES IDX 8 1 7 2 6 3 3 4 4 5 26 6 5 7 25 8 2 9 1 10 9 11 10 12 11 13
REMARK SMILES IDX 12 14 24 15 13 16 23 17 14 18 15 19 16 20 17 21 18 22 22 23
REMARK SMILES IDX 19 24 21 25 20 26
REMARK H PARENT
ROOT
ATOM      1  C   UNL     1      -1.650  -0.913   0.107  1.00  0.00     0.329 C 
ENDROOT
BRANCH   1   2
ATOM      2  O   UNL     1      -2.994  -1.015  -0.345  1.00  0.00    -0.484 OA
BRANCH   2   3
ATOM      3  C   UNL     1      -3.833   0.022  -0.046  1.00  0.00     0.120 A 
ATOM      4  C   UNL     1      -5.776   2.002   0.425  1.00  0.00     0.119 A 
ATOM      5  C   UNL     1      -4.464   2.166   0.877  1.00  0.00     0.050 A 
ATOM      6  C   UNL     1      -6.114   0.840  -0.266  1.00  0.00     0.050 A 
ATOM      7  C   UNL     1      -3.494   1.183   0.645  1.00  0.00     0.050 A 
ATOM      8  C   UNL     1      -5.144  -0.142  -0.499  1.00  0.00     0.050 A 
BRANCH   4   9
ATOM      9  O   UNL     1      -6.617   3.038   0.721  1.00  0.00    -0.497 OA
ATOM     10  C   UNL     1      -7.964   2.915   0.283  1.00  0.00     0.278 C 
ENDBRANCH   4   9
ENDBRANCH   2   3
ENDBRANCH   1   2
BRANCH   1  11
ATOM     11  C   UNL     1      -0.832  -2.150  -0.294  1.00  0.00     0.260 C 
ATOM     12  O   UNL     1      -1.354  -3.142  -0.805  1.00  0.00    -0.271 OA
ATOM     13  N   UNL     1       0.539  -2.093  -0.056  1.00  0.00    -0.337 N 
ATOM     14  C   UNL     1       1.377  -3.210  -0.498  1.00  0.00     0.135 C 
ATOM     15  C   UNL     1       1.236  -0.955   0.553  1.00  0.00     0.135 C 
ATOM     16  C   UNL     1       2.818  -2.766  -0.807  1.00  0.00     0.106 C 
ATOM     17  C   UNL     1       2.591  -1.334   1.185  1.00  0.00     0.106 C 
ATOM     18  N   UNL     1       3.471  -2.169   0.360  1.00  0.00    -0.299 NA
BRANCH  18  19
ATOM     19  C   UNL     1       4.825  -1.660   0.143  1.00  0.00     0.089 C 
BRANCH  19  20
ATOM     20  C   UNL     1       5.065  -0.634  -0.986  1.00  0.00     0.051 C 
BRANCH  20  21
ATOM     21  C   UNL     1       4.402   0.708  -0.810  1.00  0.00    -0.044 A 
ATOM     22  C   UNL     1       3.441   1.154  -1.722  1.00  0.00     0.024 A 
ATOM     23  C   UNL     1       4.748   1.551   0.250  1.00  0.00     0.024 A 
ATOM     24  C   UNL     1       2.852   2.392  -1.518  1.00  0.00     0.111 A 
ATOM     25  C   UNL     1       4.101   2.771   0.371  1.00  0.00     0.111 A 
ATOM     26  N   UNL     1       3.152   3.206  -0.484  1.00  0.00    -0.265 NA
ENDBRANCH  20  21
ENDBRANCH  19  20
ENDBRANCH  18  19
ENDBRANCH   1  11
TORSDOF 7
