REMARK SMILES Cc1ccc2c(c1C)OC(=O)CC2c1ccccc1
REMARK SMILES IDX 1 1 2 2 3 3 4 4 5 5 6 6 7 7 8 8 9 9 10 10 11 11 12 12 13 13
REMARK SMILES IDX 14 14 15 15 19 16 16 17 18 18 17 19
REMARK H PARENT
ROOT
ATOM      1  C   UNL     1       4.260  -0.019   1.561  1.00  0.00     0.045 C 
ATOM      2  C   UNL     1       2.906  -0.270   0.954  1.00  0.00    -0.044 A 
ATOM      3  C   UNL     1       2.073  -1.242   1.535  1.00  0.00     0.004 A 
ATOM      4  C   UNL     1       0.805  -1.505   1.016  1.00  0.00     0.008 A 
ATOM      5  C   UNL     1       0.343  -0.804  -0.099  1.00  0.00     0.003 A 
ATOM      6  C   UNL     1       1.172   0.161  -0.675  1.00  0.00     0.137 A 
ATOM      7  C   UNL     1       2.461   0.435  -0.183  1.00  0.00    -0.005 A 
ATOM      8  C   UNL     1       3.305   1.508  -0.819  1.00  0.00     0.049 C 
ATOM      9  O   UNL     1       0.697   0.946  -1.750  1.00  0.00    -0.426 OA
ATOM     10  C   UNL     1      -0.464   0.631  -2.440  1.00  0.00     0.312 C 
ATOM     11  O   UNL     1      -0.928   1.383  -3.292  1.00  0.00    -0.252 OA
ATOM     12  C   UNL     1      -1.030  -0.731  -2.161  1.00  0.00     0.136 C 
ATOM     13  C   UNL     1      -1.026  -1.061  -0.673  1.00  0.00     0.064 C 
ENDROOT
BRANCH  13  14
ATOM     14  C   UNL     1      -2.169  -0.383   0.072  1.00  0.00    -0.040 A 
ATOM     15  C   UNL     1      -3.373  -1.084   0.261  1.00  0.00     0.004 A 
ATOM     16  C   UNL     1      -2.085   0.934   0.551  1.00  0.00     0.004 A 
ATOM     17  C   UNL     1      -4.453  -0.491   0.917  1.00  0.00     0.000 A 
ATOM     18  C   UNL     1      -3.167   1.525   1.208  1.00  0.00     0.000 A 
ATOM     19  C   UNL     1      -4.349   0.814   1.391  1.00  0.00     0.000 A 
ENDBRANCH  13  14
TORSDOF 1
