REMARK SMILES CC(C)=CCCC(C)(O)C1CCC2(C)C1C(O)CC1C3(C)CCC(O)C(C)(C)C3CCC12C
REMARK SMILES IDX 6 1 5 2 4 3 2 4 1 5 3 6 7 7 8 8 9 9 10 11 11 12 15 13 12 14
REMARK SMILES IDX 13 15 16 16 32 17 18 18 31 19 19 20 30 21 20 22 29 23 22 24
REMARK SMILES IDX 26 25 23 26 24 27 14 28 33 29 21 30 27 31 28 32 17 33 25 35
REMARK H PARENT 9 10 17 34 25 36
ROOT
ATOM      1  C   UNL     1       4.226   0.501  -0.140  1.00  0.00     0.039 C 
ENDROOT
BRANCH   1   2
ATOM      2  C   UNL     1       5.621   1.132  -0.290  1.00  0.00     0.030 C 
BRANCH   2   3
ATOM      3  C   UNL     1       6.188   1.513   1.053  1.00  0.00    -0.028 C 
ATOM      4  C   UNL     1       7.116   0.850   1.770  1.00  0.00    -0.080 C 
ATOM      5  C   UNL     1       7.741  -0.458   1.371  1.00  0.00     0.039 C 
ATOM      6  C   UNL     1       7.601   1.393   3.089  1.00  0.00     0.039 C 
ENDBRANCH   2   3
ENDBRANCH   1   2
BRANCH   1   7
ATOM      7  C   UNL     1       3.563   0.075  -1.467  1.00  0.00     0.065 C 
ATOM      8  C   UNL     1       3.244   1.312  -2.323  1.00  0.00     0.042 C 
BRANCH   7   9
ATOM      9  O   UNL     1       4.541  -0.679  -2.212  1.00  0.00    -0.390 OA
ATOM     10  H   UNL     1       4.786  -1.449  -1.670  1.00  0.00     0.211 HD
ENDBRANCH   7   9
BRANCH   7  11
ATOM     11  C   UNL     1       2.298  -0.833  -1.393  1.00  0.00     0.027 C 
ATOM     12  C   UNL     1       2.397  -2.181  -0.642  1.00  0.00     0.007 C 
ATOM     13  C   UNL     1       0.907  -0.293  -0.967  1.00  0.00     0.030 C 
ATOM     14  C   UNL     1       0.942  -2.553  -0.242  1.00  0.00     0.008 C 
ATOM     15  C   UNL     1       0.012  -1.585  -1.041  1.00  0.00    -0.021 C 
ATOM     16  C   UNL     1       0.877   0.379   0.437  1.00  0.00     0.118 C 
ATOM     17  C   UNL     1      -1.498  -1.342  -0.481  1.00  0.00    -0.023 C 
ATOM     18  C   UNL     1      -0.426   0.206   1.213  1.00  0.00     0.036 C 
ATOM     19  C   UNL     1      -2.533  -1.208  -1.637  1.00  0.00     0.008 C 
ATOM     20  C   UNL     1      -1.629   0.017   0.296  1.00  0.00     0.004 C 
ATOM     21  C   UNL     1      -3.838  -0.464  -1.338  1.00  0.00     0.005 C 
ATOM     22  C   UNL     1      -3.027   0.299   1.005  1.00  0.00    -0.026 C 
ATOM     23  C   UNL     1      -4.234  -0.248   0.141  1.00  0.00     0.003 C 
ATOM     24  C   UNL     1      -3.169   1.844   1.235  1.00  0.00     0.010 C 
ATOM     25  C   UNL     1      -5.551   0.630   0.244  1.00  0.00    -0.006 C 
ATOM     26  C   UNL     1      -3.840   2.585   0.088  1.00  0.00     0.033 C 
ATOM     27  C   UNL     1      -5.262   2.094  -0.203  1.00  0.00     0.120 C 
ATOM     28  C   UNL     1      -0.052  -2.192  -2.485  1.00  0.00     0.012 C 
ATOM     29  C   UNL     1      -1.895  -2.596   0.334  1.00  0.00     0.012 C 
ATOM     30  C   UNL     1      -3.051  -0.344   2.422  1.00  0.00     0.012 C 
ATOM     31  C   UNL     1      -6.161   0.570   1.668  1.00  0.00     0.014 C 
ATOM     32  C   UNL     1      -6.674   0.066  -0.672  1.00  0.00     0.014 C 
BRANCH  16  33
ATOM     33  O   UNL     1       1.894  -0.105   1.310  1.00  0.00    -0.393 OA
ATOM     34  H   UNL     1       1.852   0.408   2.136  1.00  0.00     0.210 HD
ENDBRANCH  16  33
BRANCH  27  35
ATOM     35  O   UNL     1      -6.206   2.986   0.393  1.00  0.00    -0.393 OA
ATOM     36  H   UNL     1      -6.065   3.868   0.007  1.00  0.00     0.210 HD
ENDBRANCH  27  35
ENDBRANCH   7  11
ENDBRANCH   1   7
TORSDOF 7
