REMARK SMILES Cc1cccn2c(=O)c3cc(C(=O)NCCC4=CCCCC4)n(C)c3nc12
REMARK SMILES IDX 12 1 13 2 14 3 11 5 2 6 3 7 27 8 4 9 26 10 6 11 5 12 25 13
REMARK SMILES IDX 7 14 23 15 9 16 8 17 10 18 1 19 24 20 15 21 16 22 17 23
REMARK SMILES IDX 18 24 22 25 19 26 21 27 20 28
REMARK H PARENT 14 4
ROOT
ATOM      1  C   UNL     1      -0.395  -0.737   0.754  1.00  0.00     0.267 C 
ATOM      2  O   UNL     1      -0.754  -1.810   0.277  1.00  0.00    -0.268 OA
ATOM      3  N   UNL     1      -1.293   0.126   1.343  1.00  0.00    -0.350 N 
ATOM      4  H   UNL     1      -0.986   1.051   1.604  1.00  0.00     0.163 HD
ENDROOT
BRANCH   1   5
ATOM      5  C   UNL     1       0.984  -0.268   0.729  1.00  0.00     0.109 A 
ATOM      6  C   UNL     1       6.736  -0.054  -0.577  1.00  0.00    -0.008 C 
ATOM      7  C   UNL     1       7.759   0.755  -0.260  1.00  0.00     0.009 C 
ATOM      8  C   UNL     1       5.366   0.240  -0.022  1.00  0.00     0.144 C 
ATOM      9  C   UNL     1       7.572   1.893   0.595  1.00  0.00     0.019 C 
ATOM     10  N   UNL     1       4.374  -0.553  -0.336  1.00  0.00    -0.212 NA
ATOM     11  N   UNL     1       5.252   1.375   0.814  1.00  0.00    -0.267 N 
ATOM     12  C   UNL     1       6.363   2.165   1.094  1.00  0.00     0.096 C 
ATOM     13  C   UNL     1       3.188  -0.210   0.210  1.00  0.00     0.148 A 
ATOM     14  C   UNL     1       4.017   1.742   1.385  1.00  0.00     0.267 C 
ATOM     15  N   UNL     1       2.013  -0.895   0.029  1.00  0.00    -0.324 N 
ATOM     16  C   UNL     1       2.935   0.856   1.030  1.00  0.00     0.086 A 
ATOM     17  O   UNL     1       3.836   2.714   2.117  1.00  0.00    -0.268 OA
ATOM     18  C   UNL     1       1.564   0.828   1.364  1.00  0.00     0.050 A 
ATOM     19  C   UNL     1       6.881  -1.250  -1.464  1.00  0.00     0.048 C 
ATOM     20  C   UNL     1       1.873  -2.089  -0.779  1.00  0.00     0.152 C 
ENDBRANCH   1   5
BRANCH   3  21
ATOM     21  C   UNL     1      -2.716  -0.155   1.384  1.00  0.00     0.120 C 
BRANCH  21  22
ATOM     22  C   UNL     1      -3.411   0.199   0.062  1.00  0.00     0.052 C 
BRANCH  22  23
ATOM     23  C   UNL     1      -4.918   0.027  -0.002  1.00  0.00    -0.072 C 
ATOM     24  C   UNL     1      -5.689  -0.415   1.010  1.00  0.00    -0.028 C 
ATOM     25  C   UNL     1      -5.525   0.392  -1.342  1.00  0.00     0.031 C 
ATOM     26  C   UNL     1      -7.175  -0.621   0.908  1.00  0.00     0.027 C 
ATOM     27  C   UNL     1      -7.048   0.535  -1.319  1.00  0.00     0.005 C 
ATOM     28  C   UNL     1      -7.693  -0.596  -0.529  1.00  0.00     0.004 C 
ENDBRANCH  22  23
ENDBRANCH  21  22
ENDBRANCH   3  21
TORSDOF 4
