REMARK SMILES Cc1ccc([C@]2(C)CCCC2(C)C)cc1
REMARK SMILES IDX 1 1 2 2 3 3 4 4 5 5 14 6 15 7 6 8 8 9 11 10 9 11 10 12 7 13
REMARK SMILES IDX 12 14 13 15
REMARK H PARENT
ROOT
ATOM      1  C   UNL     1       4.857   1.103   0.596  1.00  0.00     0.044 C 
ATOM      2  C   UNL     1       3.459   0.625   0.346  1.00  0.00    -0.051 A 
ATOM      3  C   UNL     1       2.654   0.194   1.400  1.00  0.00     0.004 A 
ATOM      4  C   UNL     1       1.338  -0.221   1.167  1.00  0.00     0.004 A 
ATOM      5  C   UNL     1       0.770  -0.200  -0.120  1.00  0.00    -0.042 A 
ATOM      6  C   UNL     1       1.600   0.231  -1.169  1.00  0.00     0.004 A 
ATOM      7  C   UNL     1       2.917   0.648  -0.939  1.00  0.00     0.004 A 
ENDROOT
BRANCH   5   8
ATOM      8  C   UNL     1      -0.679  -0.669  -0.343  1.00  0.00    -0.002 C 
ATOM      9  C   UNL     1      -1.155  -0.568  -1.822  1.00  0.00     0.012 C 
ATOM     10  C   UNL     1      -1.789   0.209   0.370  1.00  0.00    -0.026 C 
ATOM     11  C   UNL     1      -2.679  -0.613  -1.786  1.00  0.00     0.002 C 
ATOM     12  C   UNL     1      -3.087  -0.188  -0.380  1.00  0.00     0.007 C 
ATOM     13  C   UNL     1      -0.749  -2.169   0.058  1.00  0.00     0.017 C 
ATOM     14  C   UNL     1      -1.555   1.728   0.183  1.00  0.00     0.012 C 
ATOM     15  C   UNL     1      -1.996  -0.044   1.873  1.00  0.00     0.012 C 
ENDBRANCH   5   8
TORSDOF 1
