REMARK SMILES CC(C)[C@@H](C)/C=C/[C@@H](C)[C@H]1CCC2=C3C=CC4=CC(=O)CC[C@]4(C)[C@H]3CC[C@@]21C
REMARK SMILES IDX 6 1 7 2 4 3 5 4 2 5 1 6 3 7 8 8 9 9 10 10 11 11 28 12 12 13
REMARK SMILES IDX 27 14 13 15 26 16 14 17 25 18 15 19 23 20 16 21 22 22 17 23
REMARK SMILES IDX 21 24 18 25 19 26 20 27 29 28 24 29
REMARK H PARENT
ROOT
ATOM      1  C   UNL     1       3.626  -0.628  -0.831  1.00  0.00    -0.028 C 
ATOM      2  C   UNL     1       3.099  -0.598   0.405  1.00  0.00    -0.028 C 
ENDROOT
BRANCH   1   3
ATOM      3  C   UNL     1       4.621   0.337  -1.457  1.00  0.00     0.011 C 
ATOM      4  C   UNL     1       5.762  -0.481  -2.081  1.00  0.00     0.012 C 
BRANCH   3   5
ATOM      5  C   UNL     1       5.134   1.495  -0.550  1.00  0.00    -0.011 C 
ATOM      6  C   UNL     1       6.143   1.053   0.516  1.00  0.00     0.008 C 
ATOM      7  C   UNL     1       5.751   2.626  -1.385  1.00  0.00     0.008 C 
ENDBRANCH   3   5
ENDBRANCH   1   3
BRANCH   2   8
ATOM      8  C   UNL     1       2.104  -1.615   0.916  1.00  0.00     0.012 C 
ATOM      9  C   UNL     1       2.799  -2.443   2.008  1.00  0.00     0.012 C 
BRANCH   8  10
ATOM     10  C   UNL     1       0.762  -1.047   1.444  1.00  0.00     0.006 C 
ATOM     11  C   UNL     1       0.860   0.005   2.562  1.00  0.00     0.009 C 
ATOM     12  C   UNL     1      -0.215  -0.399   0.428  1.00  0.00    -0.008 C 
ATOM     13  C   UNL     1      -0.546   0.608   2.661  1.00  0.00     0.032 C 
ATOM     14  C   UNL     1      -0.856  -1.433  -0.514  1.00  0.00     0.012 C 
ATOM     15  C   UNL     1      -1.242   0.178   1.390  1.00  0.00    -0.060 C 
ATOM     16  C   UNL     1      -2.133  -0.883  -1.155  1.00  0.00     0.010 C 
ATOM     17  C   UNL     1      -2.571   0.158   1.164  1.00  0.00    -0.044 C 
ATOM     18  C   UNL     1      -3.182  -0.498  -0.090  1.00  0.00     0.029 C 
ATOM     19  C   UNL     1      -3.532   0.750   2.090  1.00  0.00     0.004 C 
ATOM     20  C   UNL     1      -4.388   0.348  -0.632  1.00  0.00    -0.000 C 
ATOM     21  C   UNL     1      -4.837   0.884   1.804  1.00  0.00     0.005 C 
ATOM     22  C   UNL     1      -5.065  -0.255  -1.898  1.00  0.00     0.020 C 
ATOM     23  C   UNL     1      -5.392   0.436   0.535  1.00  0.00    -0.038 C 
ATOM     24  C   UNL     1      -6.079  -1.342  -1.591  1.00  0.00     0.081 C 
ATOM     25  C   UNL     1      -6.665   0.012   0.488  1.00  0.00     0.051 C 
ATOM     26  C   UNL     1      -7.133  -0.782  -0.670  1.00  0.00     0.156 C 
ATOM     27  O   UNL     1      -8.327  -1.041  -0.790  1.00  0.00    -0.295 OA
ATOM     28  C   UNL     1       0.380   0.764  -0.394  1.00  0.00     0.016 C 
ATOM     29  C   UNL     1      -3.933   1.777  -1.048  1.00  0.00     0.017 C 
ENDBRANCH   8  10
ENDBRANCH   2   8
TORSDOF 4
