REMARK SMILES O=C(C(=O)N1CCc2ccccc2C1)c1cn(CC(=O)N2CCCC2)c2ccccc12
REMARK SMILES IDX 15 1 16 2 17 3 26 4 27 5 28 6 29 7 30 8 31 9 2 10 1 11 3 12
REMARK SMILES IDX 4 13 5 14 6 15 14 16 7 17 13 18 8 19 12 20 9 21 11 22 10 23
REMARK SMILES IDX 18 24 19 25 20 26 21 27 22 28 25 29 23 30 24 31
REMARK H PARENT
ROOT
ATOM      1  C   UNL     1       0.224   0.433  -2.020  1.00  0.00     0.053 A 
ATOM      2  C   UNL     1      -0.858   1.231  -1.692  1.00  0.00     0.099 A 
ATOM      3  N   UNL     1      -1.880   0.431  -1.263  1.00  0.00    -0.337 N 
ATOM      4  C   UNL     1      -1.504  -0.894  -1.328  1.00  0.00     0.049 A 
ATOM      5  C   UNL     1      -2.211  -2.063  -0.996  1.00  0.00     0.027 A 
ATOM      6  C   UNL     1      -1.575  -3.293  -1.170  1.00  0.00     0.002 A 
ATOM      7  C   UNL     1      -0.277  -3.358  -1.660  1.00  0.00     0.001 A 
ATOM      8  C   UNL     1       0.422  -2.189  -1.982  1.00  0.00     0.011 A 
ATOM      9  C   UNL     1      -0.189  -0.926  -1.812  1.00  0.00     0.011 A 
ENDROOT
BRANCH   1  10
ATOM     10  C   UNL     1       1.509   0.974  -2.459  1.00  0.00     0.252 C 
ATOM     11  O   UNL     1       1.683   2.174  -2.672  1.00  0.00    -0.283 OA
BRANCH  10  12
ATOM     12  C   UNL     1       2.725   0.063  -2.600  1.00  0.00     0.295 C 
ATOM     13  O   UNL     1       2.899  -0.515  -3.668  1.00  0.00    -0.265 OA
BRANCH  12  14
ATOM     14  N   UNL     1       3.556  -0.063  -1.483  1.00  0.00    -0.331 N 
ATOM     15  C   UNL     1       4.612  -1.065  -1.508  1.00  0.00     0.125 C 
ATOM     16  C   UNL     1       3.179   0.475  -0.176  1.00  0.00     0.155 C 
ATOM     17  C   UNL     1       5.874  -0.559  -0.817  1.00  0.00     0.057 C 
ATOM     18  C   UNL     1       4.288   0.474   0.851  1.00  0.00    -0.025 A 
ATOM     19  C   UNL     1       5.568  -0.031   0.560  1.00  0.00    -0.041 A 
ATOM     20  C   UNL     1       4.029   0.984   2.132  1.00  0.00     0.006 A 
ATOM     21  C   UNL     1       6.571   0.008   1.538  1.00  0.00     0.004 A 
ATOM     22  C   UNL     1       5.030   1.005   3.104  1.00  0.00     0.000 A 
ATOM     23  C   UNL     1       6.300   0.520   2.806  1.00  0.00     0.000 A 
ENDBRANCH  12  14
ENDBRANCH  10  12
ENDBRANCH   1  10
BRANCH   3  24
ATOM     24  C   UNL     1      -3.195   0.918  -0.863  1.00  0.00     0.222 C 
BRANCH  24  25
ATOM     25  C   UNL     1      -3.381   0.948   0.645  1.00  0.00     0.242 C 
ATOM     26  O   UNL     1      -2.436   1.035   1.430  1.00  0.00    -0.273 OA
ATOM     27  N   UNL     1      -4.685   0.904   1.099  1.00  0.00    -0.341 N 
ATOM     28  C   UNL     1      -5.901   0.897   0.300  1.00  0.00     0.119 C 
ATOM     29  C   UNL     1      -4.987   0.919   2.521  1.00  0.00     0.119 C 
ATOM     30  C   UNL     1      -7.012   1.192   1.298  1.00  0.00     0.023 C 
ATOM     31  C   UNL     1      -6.473   0.598   2.594  1.00  0.00     0.023 C 
ENDBRANCH  24  25
ENDBRANCH   3  24
TORSDOF 5
