REMARK SMILES COc1ccc(Br)cc1CNC(=O)CN1C(=O)c2cccnc2Oc2ccc(C)cc21
REMARK SMILES IDX 11 1 12 2 13 3 10 5 9 6 3 7 4 8 5 9 8 10 6 11 7 12 2 13 1 14
REMARK SMILES IDX 14 15 15 16 16 17 31 18 17 19 18 20 30 21 25 22 19 23 23 24
REMARK SMILES IDX 28 25 24 26 26 27 20 28 22 29 27 30 21 31 29 32
REMARK H PARENT 11 4
ROOT
ATOM      1  N   UNL     1       1.587  -1.424   0.449  1.00  0.00    -0.350 N 
ATOM      2  C   UNL     1       0.445  -2.189   0.550  1.00  0.00     0.240 C 
ATOM      3  O   UNL     1       0.050  -2.673   1.608  1.00  0.00    -0.273 OA
ATOM      4  H   UNL     1       1.665  -0.837  -0.383  1.00  0.00     0.163 HD
ENDROOT
BRANCH   1   5
ATOM      5  C   UNL     1       2.273  -0.976   1.636  1.00  0.00     0.155 C 
BRANCH   5   6
ATOM      6  C   UNL     1       3.572  -0.297   1.284  1.00  0.00     0.014 A 
ATOM      7  C   UNL     1       3.656   1.098   1.111  1.00  0.00     0.123 A 
ATOM      8  C   UNL     1       4.882   1.676   0.761  1.00  0.00     0.048 A 
ATOM      9  C   UNL     1       6.017   0.880   0.579  1.00  0.00     0.019 A 
ATOM     10  C   UNL     1       4.718  -1.089   1.086  1.00  0.00     0.025 A 
ATOM     11  C   UNL     1       5.930  -0.498   0.740  1.00  0.00     0.018 A 
ATOM     12  Br  UNL     1       7.462  -1.574   0.483  1.00  0.00    -0.051 Br
BRANCH   7  13
ATOM     13  O   UNL     1       2.491   1.798   1.289  1.00  0.00    -0.496 OA
ATOM     14  C   UNL     1       2.573   3.218   1.275  1.00  0.00     0.278 C 
ENDBRANCH   7  13
ENDBRANCH   5   6
ENDBRANCH   1   5
BRANCH   2  15
ATOM     15  C   UNL     1      -0.320  -2.352  -0.768  1.00  0.00     0.226 C 
BRANCH  15  16
ATOM     16  N   UNL     1      -1.155  -1.176  -1.056  1.00  0.00    -0.295 N 
ATOM     17  C   UNL     1      -0.480  -0.076  -1.606  1.00  0.00     0.264 C 
ATOM     18  C   UNL     1      -2.553  -1.228  -0.746  1.00  0.00     0.088 A 
ATOM     19  O   UNL     1       0.728  -0.121  -1.865  1.00  0.00    -0.268 OA
ATOM     20  C   UNL     1      -1.131   1.232  -1.768  1.00  0.00     0.102 A 
ATOM     21  C   UNL     1      -3.034  -2.062   0.279  1.00  0.00     0.033 A 
ATOM     22  C   UNL     1      -3.505  -0.495  -1.468  1.00  0.00     0.153 A 
ATOM     23  C   UNL     1      -0.401   2.400  -1.521  1.00  0.00     0.021 A 
ATOM     24  C   UNL     1      -2.427   1.369  -2.220  1.00  0.00     0.232 A 
ATOM     25  C   UNL     1      -4.405  -2.163   0.576  1.00  0.00    -0.049 A 
ATOM     26  O   UNL     1      -3.173   0.271  -2.556  1.00  0.00    -0.436 OA
ATOM     27  C   UNL     1      -4.873  -0.589  -1.188  1.00  0.00     0.050 A 
ATOM     28  C   UNL     1      -0.998   3.642  -1.723  1.00  0.00     0.021 A 
ATOM     29  N   UNL     1      -3.031   2.564  -2.443  1.00  0.00    -0.221 NA
ATOM     30  C   UNL     1      -5.321  -1.410  -0.159  1.00  0.00     0.007 A 
ATOM     31  C   UNL     1      -2.305   3.671  -2.181  1.00  0.00     0.115 A 
ATOM     32  C   UNL     1      -4.867  -3.027   1.714  1.00  0.00     0.044 C 
ENDBRANCH  15  16
ENDBRANCH   2  15
TORSDOF 5
