REMARK SMILES C=C1C(=O)O[C@H]2[C@H]1CCC(C)=C1CC[C@@](C)(O)[C@@H]12
REMARK SMILES IDX 1 1 2 2 3 3 4 4 5 5 6 6 7 7 8 8 9 9 18 11 15 12 12 13 14 14
REMARK SMILES IDX 10 15 13 16 16 17 11 18 17 20
REMARK H PARENT 17 21
REMARK Flexibility Score:    5.900
ROOT
ATOM      1  C   UNL     1       4.122  -1.335   0.520  1.00  0.00     0.021 C 
ATOM      2  C   UNL     1       2.877  -1.347   0.033  1.00  0.00     0.037 C 
ATOM      3  C   UNL     1       2.169  -2.609  -0.296  1.00  0.00     0.334 C 
ATOM      4  O   UNL     1       2.658  -3.716  -0.403  1.00  0.00    -0.247 OA
ATOM      5  O   UNL     1       0.855  -2.295  -0.485  1.00  0.00    -0.458 OA
ATOM      6  C   UNL     1       0.625  -0.961   0.002  1.00  0.00     0.194 C 
ATOM      7  C   UNL     1       1.930  -0.230  -0.259  1.00  0.00     0.068 C 
ENDROOT
BRANCH   7   8
ATOM      8  C   UNL     1       2.067   1.043   0.564  1.00  0.00     0.017 C 
BRANCH   8   9
ATOM      9  C   UNL     1       1.199   2.183   0.030  1.00  0.00     0.031 CG0
ATOM     10  G   UNL     1      -0.303   2.074   0.206  1.00  0.00     0.000 G0
ENDBRANCH   8   9
ENDBRANCH   7   8
BRANCH   6  11
ATOM     11  C   UNL     1      -0.580  -0.332  -0.698  1.00  0.00     0.088 C 
ATOM     12  C   UNL     1      -1.850  -1.229  -0.655  1.00  0.00     0.072 C 
ATOM     13  C   UNL     1      -1.055   1.006  -0.141  1.00  0.00    -0.062 C 
ATOM     14  C   UNL     1      -2.961  -0.218  -0.936  1.00  0.00     0.040 C 
ATOM     15  C   UNL     1      -0.303   2.074   0.206  1.00  0.00    -0.074 CG0
ATOM     16  C   UNL     1      -2.573   0.996  -0.106  1.00  0.00     0.034 C 
ATOM     17  C   UNL     1      -2.105  -1.968   0.665  1.00  0.00     0.043 C 
ATOM     18  C   UNL     1      -0.917   3.347   0.750  1.00  0.00     0.039 C 
ATOM     19  G   UNL     1       1.199   2.183   0.030  1.00  0.00     0.000 G0
BRANCH  12  20
ATOM     20  O   UNL     1      -1.828  -2.190  -1.708  1.00  0.00    -0.389 OA
ATOM     21  H   UNL     1      -1.049  -2.760  -1.561  1.00  0.00     0.211 HD
ENDBRANCH  12  20
ENDBRANCH   6  11
TORSDOF 1
