REMARK SMILES CCCCCCC(O)(CCN1CCCCC1)c1ccccc1
REMARK SMILES IDX 5 1 4 2 3 3 2 4 1 5 6 6 7 7 8 8 9 10 10 11 11 12 12 13 16 14
REMARK SMILES IDX 13 15 15 16 14 17 17 18 18 19 22 20 19 21 21 22 20 23
REMARK H PARENT 8 9
ROOT
ATOM      1  C   UNL     1       2.017  -1.197  -0.199  1.00  0.00     0.003 C 
ENDROOT
BRANCH   1   2
ATOM      2  C   UNL     1       2.537  -1.740   1.134  1.00  0.00     0.000 C 
BRANCH   2   3
ATOM      3  C   UNL     1       3.807  -1.074   1.674  1.00  0.00    -0.000 C 
BRANCH   3   4
ATOM      4  C   UNL     1       5.021  -1.111   0.742  1.00  0.00    -0.003 C 
ATOM      5  C   UNL     1       5.479  -2.520   0.397  1.00  0.00     0.004 C 
ENDBRANCH   3   4
ENDBRANCH   2   3
ENDBRANCH   1   2
BRANCH   1   6
ATOM      6  C   UNL     1       1.705   0.309  -0.274  1.00  0.00     0.040 C 
BRANCH   6   7
ATOM      7  C   UNL     1       0.549   0.856   0.612  1.00  0.00     0.091 C 
BRANCH   7   8
ATOM      8  O   UNL     1       0.956   0.669   1.980  1.00  0.00    -0.385 OA
ATOM      9  H   UNL     1       1.550   1.407   2.205  1.00  0.00     0.211 HD
ENDBRANCH   7   8
BRANCH   7  10
ATOM     10  C   UNL     1      -0.770   0.058   0.435  1.00  0.00     0.056 C 
BRANCH  10  11
ATOM     11  C   UNL     1      -1.338   0.090  -0.993  1.00  0.00     0.088 C 
BRANCH  11  12
ATOM     12  N   UNL     1      -2.625  -0.590  -1.189  1.00  0.00    -0.303 NA
ATOM     13  C   UNL     1      -2.643  -1.987  -0.773  1.00  0.00     0.084 C 
ATOM     14  C   UNL     1      -3.768   0.178  -0.678  1.00  0.00     0.084 C 
ATOM     15  C   UNL     1      -3.861  -2.699  -1.374  1.00  0.00     0.016 C 
ATOM     16  C   UNL     1      -5.012  -0.678  -0.404  1.00  0.00     0.016 C 
ATOM     17  C   UNL     1      -5.122  -1.831  -1.390  1.00  0.00     0.003 C 
ENDBRANCH  11  12
ENDBRANCH  10  11
ENDBRANCH   7  10
BRANCH   7  18
ATOM     18  C   UNL     1       0.299   2.366   0.451  1.00  0.00    -0.017 A 
ATOM     19  C   UNL     1      -0.520   3.032   1.387  1.00  0.00     0.007 A 
ATOM     20  C   UNL     1       0.844   3.132  -0.592  1.00  0.00     0.007 A 
ATOM     21  C   UNL     1      -0.782   4.400   1.284  1.00  0.00     0.000 A 
ATOM     22  C   UNL     1       0.580   4.503  -0.695  1.00  0.00     0.000 A 
ATOM     23  C   UNL     1      -0.232   5.135   0.241  1.00  0.00     0.000 A 
ENDBRANCH   7  18
ENDBRANCH   6   7
ENDBRANCH   1   6
TORSDOF 10
