REMARK SMILES CCOc1ccc(-n2nc3ccc(NC(=O)COc4ccc(OC)cc4)cc3n2)cc1
REMARK SMILES IDX 14 1 15 2 16 3 13 5 8 6 9 7 29 8 10 9 28 10 11 11 27 12
REMARK SMILES IDX 12 13 7 14 4 15 5 16 31 17 6 18 30 19 3 20 2 21 1 22 17 23
REMARK SMILES IDX 18 24 19 25 20 26 26 27 21 28 25 29 22 30 23 31 24 32
REMARK H PARENT 14 4
ROOT
ATOM      1  N   UNL     1       2.024   1.603   0.558  1.00  0.00    -0.323 N 
ATOM      2  C   UNL     1       3.281   1.500   1.146  1.00  0.00     0.262 C 
ATOM      3  O   UNL     1       3.574   0.783   2.095  1.00  0.00    -0.271 OA
ATOM      4  H   UNL     1       1.934   2.267  -0.203  1.00  0.00     0.170 HD
ENDROOT
BRANCH   1   5
ATOM      5  C   UNL     1       0.842   0.906   0.903  1.00  0.00     0.043 A 
ATOM      6  N   UNL     1      -3.420  -0.262   0.667  1.00  0.00    -0.150 N 
ATOM      7  N   UNL     1      -2.759  -0.936   1.638  1.00  0.00    -0.148 NA
ATOM      8  N   UNL     1      -2.700   0.632  -0.056  1.00  0.00    -0.148 NA
ATOM      9  C   UNL     1      -1.514  -0.452   1.551  1.00  0.00     0.113 A 
ATOM     10  C   UNL     1      -1.476   0.537   0.482  1.00  0.00     0.115 A 
ATOM     11  C   UNL     1      -0.378  -0.774   2.307  1.00  0.00     0.035 A 
ATOM     12  C   UNL     1      -0.302   1.232   0.139  1.00  0.00     0.058 A 
ATOM     13  C   UNL     1       0.790  -0.065   1.945  1.00  0.00     0.028 A 
BRANCH   6  14
ATOM     14  C   UNL     1      -4.802  -0.481   0.416  1.00  0.00     0.086 A 
ATOM     15  C   UNL     1      -7.534  -0.909  -0.084  1.00  0.00     0.119 A 
ATOM     16  C   UNL     1      -6.877  -1.619   0.925  1.00  0.00     0.049 A 
ATOM     17  C   UNL     1      -6.819   0.017  -0.844  1.00  0.00     0.049 A 
ATOM     18  C   UNL     1      -5.519  -1.411   1.179  1.00  0.00     0.034 A 
ATOM     19  C   UNL     1      -5.458   0.233  -0.597  1.00  0.00     0.034 A 
BRANCH  15  20
ATOM     20  O   UNL     1      -8.860  -1.213  -0.223  1.00  0.00    -0.494 OA
BRANCH  20  21
ATOM     21  C   UNL     1      -9.584  -0.519  -1.238  1.00  0.00     0.226 C 
ATOM     22  C   UNL     1     -11.019  -1.012  -1.209  1.00  0.00     0.049 C 
ENDBRANCH  20  21
ENDBRANCH  15  20
ENDBRANCH   6  14
ENDBRANCH   1   5
BRANCH   2  23
ATOM     23  C   UNL     1       4.307   2.417   0.456  1.00  0.00     0.329 C 
BRANCH  23  24
ATOM     24  O   UNL     1       5.650   2.301   0.892  1.00  0.00    -0.484 OA
BRANCH  24  25
ATOM     25  C   UNL     1       6.416   1.309   0.349  1.00  0.00     0.120 A 
ATOM     26  C   UNL     1       5.960   0.238  -0.417  1.00  0.00     0.050 A 
ATOM     27  C   UNL     1       7.782   1.410   0.626  1.00  0.00     0.050 A 
ATOM     28  C   UNL     1       6.868  -0.706  -0.910  1.00  0.00     0.050 A 
ATOM     29  C   UNL     1       8.690   0.466   0.133  1.00  0.00     0.050 A 
ATOM     30  C   UNL     1       8.234  -0.598  -0.642  1.00  0.00     0.119 A 
BRANCH  30  31
ATOM     31  O   UNL     1       9.005  -1.587  -1.187  1.00  0.00    -0.497 OA
ATOM     32  C   UNL     1      10.397  -1.545  -0.901  1.00  0.00     0.278 C 
ENDBRANCH  30  31
ENDBRANCH  24  25
ENDBRANCH  23  24
ENDBRANCH   2  23
TORSDOF 8
