REMARK SMILES COc1ccc(N2C(=O)CSC23C(=O)N(CC(N)=O)c2ccccc23)cc1
REMARK SMILES IDX 7 1 8 2 9 3 10 4 11 5 12 6 13 7 14 8 15 9 20 10 21 11 22 12
REMARK SMILES IDX 23 13 24 14 25 15 6 16 3 17 4 18 27 19 5 20 26 21 2 22 1 23
REMARK SMILES IDX 16 24 17 25 18 26 19 27
REMARK H PARENT 18 28 18 29
ROOT
ATOM      1  N   UNL     1      -0.004   1.172   1.259  1.00  0.00    -0.283 N 
ATOM      2  C   UNL     1      -0.068   1.914   2.453  1.00  0.00     0.238 C 
ATOM      3  O   UNL     1       0.713   1.854   3.399  1.00  0.00    -0.273 OA
ATOM      4  C   UNL     1      -1.271   2.829   2.520  1.00  0.00     0.173 C 
ATOM      5  S   UNL     1      -1.977   2.885   0.878  1.00  0.00    -0.109 SA
ATOM      6  C   UNL     1      -1.188   1.299   0.418  1.00  0.00     0.201 C 
ATOM      7  C   UNL     1      -2.250   0.175   0.677  1.00  0.00     0.269 C 
ATOM      8  O   UNL     1      -2.630  -0.260   1.758  1.00  0.00    -0.270 OA
ATOM      9  N   UNL     1      -2.679  -0.276  -0.579  1.00  0.00    -0.299 N 
ATOM     10  C   UNL     1      -1.931   0.309  -1.611  1.00  0.00     0.051 A 
ATOM     11  C   UNL     1      -1.982   0.045  -2.967  1.00  0.00     0.027 A 
ATOM     12  C   UNL     1      -1.103   0.741  -3.802  1.00  0.00     0.002 A 
ATOM     13  C   UNL     1      -0.195   1.676  -3.276  1.00  0.00     0.001 A 
ATOM     14  C   UNL     1      -0.148   1.930  -1.904  1.00  0.00     0.010 A 
ATOM     15  C   UNL     1      -1.022   1.235  -1.079  1.00  0.00     0.022 A 
ENDROOT
BRANCH   1  16
ATOM     16  C   UNL     1       1.056   0.235   1.006  1.00  0.00     0.046 A 
ATOM     17  C   UNL     1       3.211  -1.564   0.515  1.00  0.00     0.119 A 
ATOM     18  C   UNL     1       3.399  -0.440   1.309  1.00  0.00     0.048 A 
ATOM     19  C   UNL     1       1.952  -1.787  -0.034  1.00  0.00     0.048 A 
ATOM     20  C   UNL     1       2.335   0.445   1.546  1.00  0.00     0.030 A 
ATOM     21  C   UNL     1       0.890  -0.903   0.207  1.00  0.00     0.030 A 
BRANCH  17  22
ATOM     22  O   UNL     1       4.152  -2.502   0.203  1.00  0.00    -0.497 OA
ATOM     23  C   UNL     1       5.445  -2.327   0.769  1.00  0.00     0.278 C 
ENDBRANCH  17  22
ENDBRANCH   1  16
BRANCH   9  24
ATOM     24  C   UNL     1      -3.633  -1.349  -0.740  1.00  0.00     0.225 C 
BRANCH  24  25
ATOM     25  C   UNL     1      -2.906  -2.683  -0.625  1.00  0.00     0.237 C 
ATOM     26  N   UNL     1      -2.676  -3.111   0.654  1.00  0.00    -0.368 N 
ATOM     27  O   UNL     1      -2.491  -3.314  -1.591  1.00  0.00    -0.273 OA
ATOM     28  H   UNL     1      -2.724  -2.455   1.432  1.00  0.00     0.159 HD
ATOM     29  H   UNL     1      -2.080  -3.921   0.768  1.00  0.00     0.159 HD
ENDBRANCH  24  25
ENDBRANCH   9  24
TORSDOF 4
