REMARK SMILES COc1cccc(NC(=O)Nc2ccc3nc(N4CCN(C)CC4)cc(C)c3c2)c1
REMARK SMILES IDX 8 1 9 2 10 3 11 4 7 7 3 8 4 9 30 10 5 11 6 12 2 13 1 14
REMARK SMILES IDX 12 15 13 16 29 17 14 18 28 19 15 20 26 21 16 22 25 23 17 24
REMARK SMILES IDX 27 25 18 26 19 27 24 28 20 29 23 30 21 31 22 32
REMARK H PARENT 8 5 11 6
ROOT
ATOM      1  N   UNL     1       4.821  -0.420   0.010  1.00  0.00    -0.308 N 
ATOM      2  C   UNL     1       3.653   0.310  -0.163  1.00  0.00     0.323 C 
ATOM      3  O   UNL     1       3.593   1.444  -0.619  1.00  0.00    -0.248 OA
ATOM      4  N   UNL     1       2.560  -0.435   0.262  1.00  0.00    -0.308 N 
ATOM      5  H   UNL     1       4.705  -1.411   0.155  1.00  0.00     0.171 HD
ATOM      6  H   UNL     1       2.774  -1.236   0.836  1.00  0.00     0.171 HD
ENDROOT
BRANCH   1   7
ATOM      7  C   UNL     1       6.146   0.017  -0.195  1.00  0.00     0.046 A 
ATOM      8  C   UNL     1       8.504  -0.606  -0.301  1.00  0.00     0.120 A 
ATOM      9  C   UNL     1       8.843   0.721  -0.555  1.00  0.00     0.046 A 
ATOM     10  C   UNL     1       7.159  -0.948  -0.120  1.00  0.00     0.072 A 
ATOM     11  C   UNL     1       7.842   1.692  -0.624  1.00  0.00     0.006 A 
ATOM     12  C   UNL     1       6.501   1.343  -0.443  1.00  0.00     0.026 A 
BRANCH   8  13
ATOM     13  O   UNL     1       9.377  -1.656  -0.203  1.00  0.00    -0.497 OA
ATOM     14  C   UNL     1      10.756  -1.363  -0.393  1.00  0.00     0.278 C 
ENDBRANCH   8  13
ENDBRANCH   1   7
BRANCH   4  15
ATOM     15  C   UNL     1       1.196  -0.095   0.154  1.00  0.00     0.043 A 
ATOM     16  C   UNL     1       0.717   0.988  -0.571  1.00  0.00     0.028 A 
ATOM     17  C   UNL     1       0.271  -0.921   0.805  1.00  0.00     0.036 A 
ATOM     18  C   UNL     1      -0.658   1.242  -0.630  1.00  0.00     0.031 A 
ATOM     19  C   UNL     1      -1.123  -0.670   0.748  1.00  0.00     0.005 A 
ATOM     20  C   UNL     1      -1.587   0.438   0.013  1.00  0.00     0.073 A 
ATOM     21  C   UNL     1      -2.095  -1.465   1.393  1.00  0.00    -0.038 A 
ATOM     22  N   UNL     1      -2.887   0.755  -0.099  1.00  0.00    -0.231 NA
ATOM     23  C   UNL     1      -3.445  -1.116   1.262  1.00  0.00     0.051 A 
ATOM     24  C   UNL     1      -3.819  -0.012   0.500  1.00  0.00     0.129 A 
ATOM     25  C   UNL     1      -1.732  -2.663   2.225  1.00  0.00     0.045 C 
BRANCH  24  26
ATOM     26  N   UNL     1      -5.185   0.326   0.396  1.00  0.00    -0.354 N 
ATOM     27  C   UNL     1      -5.398   1.654  -0.223  1.00  0.00     0.133 C 
ATOM     28  C   UNL     1      -5.980  -0.722  -0.282  1.00  0.00     0.133 C 
ATOM     29  C   UNL     1      -6.904   2.007  -0.226  1.00  0.00     0.105 C 
ATOM     30  C   UNL     1      -7.479  -0.334  -0.295  1.00  0.00     0.105 C 
ATOM     31  N   UNL     1      -7.727   0.985  -0.914  1.00  0.00    -0.303 NA
ATOM     32  C   UNL     1      -9.144   1.333  -0.845  1.00  0.00     0.105 C 
ENDBRANCH  24  26
ENDBRANCH   4  15
TORSDOF 4
