REMARK SMILES COc1ccc(CNC(=O)CCc2c(C)nn(-c3ccc(N4CCOCC4)nn3)c2C)c(OC)c1
REMARK SMILES IDX 8 1 9 2 10 3 7 5 6 6 3 7 4 8 35 9 5 10 32 11 2 12 1 13 33 14
REMARK SMILES IDX 34 15 11 16 12 17 13 18 14 19 30 20 16 21 17 22 15 23 31 24
REMARK SMILES IDX 18 25 19 26 29 27 20 28 28 29 21 30 22 31 23 32 27 33 24 34
REMARK SMILES IDX 26 35 25 36
REMARK H PARENT 8 4
ROOT
ATOM      1  N   UNL     1       3.718  -1.335  -2.632  1.00  0.00    -0.352 N 
ATOM      2  C   UNL     1       2.942  -0.218  -2.848  1.00  0.00     0.220 C 
ATOM      3  O   UNL     1       3.365   0.819  -3.346  1.00  0.00    -0.275 OA
ATOM      4  H   UNL     1       3.356  -2.085  -2.060  1.00  0.00     0.163 HD
ENDROOT
BRANCH   1   5
ATOM      5  C   UNL     1       5.149  -1.322  -2.840  1.00  0.00     0.155 C 
BRANCH   5   6
ATOM      6  C   UNL     1       5.874  -1.035  -1.547  1.00  0.00     0.014 A 
ATOM      7  C   UNL     1       7.190  -0.421   0.861  1.00  0.00     0.122 A 
ATOM      8  C   UNL     1       6.888   0.587  -0.054  1.00  0.00     0.047 A 
ATOM      9  C   UNL     1       6.822  -1.739   0.578  1.00  0.00     0.093 A 
ATOM     10  C   UNL     1       6.232   0.287  -1.246  1.00  0.00     0.013 A 
ATOM     11  C   UNL     1       6.162  -2.054  -0.619  1.00  0.00     0.127 A 
BRANCH   7  12
ATOM     12  O   UNL     1       7.833   0.012   1.989  1.00  0.00    -0.497 OA
ATOM     13  C   UNL     1       8.211  -0.974   2.940  1.00  0.00     0.278 C 
ENDBRANCH   7  12
BRANCH  11  14
ATOM     14  O   UNL     1       5.739  -3.311  -0.969  1.00  0.00    -0.496 OA
ATOM     15  C   UNL     1       6.123  -4.392  -0.128  1.00  0.00     0.278 C 
ENDBRANCH  11  14
ENDBRANCH   5   6
ENDBRANCH   1   5
BRANCH   2  16
ATOM     16  C   UNL     1       1.508  -0.410  -2.406  1.00  0.00     0.105 C 
BRANCH  16  17
ATOM     17  C   UNL     1       0.662   0.828  -2.693  1.00  0.00     0.049 C 
BRANCH  17  18
ATOM     18  C   UNL     1      -0.748   0.666  -2.219  1.00  0.00    -0.003 A 
ATOM     19  C   UNL     1      -1.824   0.088  -2.929  1.00  0.00     0.063 A 
ATOM     20  C   UNL     1      -1.280   1.006  -0.981  1.00  0.00     0.046 A 
ATOM     21  N   UNL     1      -2.935   0.053  -2.199  1.00  0.00    -0.171 NA
ATOM     22  N   UNL     1      -2.644   0.705  -1.039  1.00  0.00    -0.217 N 
ATOM     23  C   UNL     1      -1.823  -0.475  -4.303  1.00  0.00     0.069 C 
ATOM     24  C   UNL     1      -0.558   1.537   0.205  1.00  0.00     0.067 C 
BRANCH  22  25
ATOM     25  C   UNL     1      -3.708   0.962  -0.112  1.00  0.00     0.176 A 
ATOM     26  C   UNL     1      -3.594   1.870   0.926  1.00  0.00     0.055 A 
ATOM     27  N   UNL     1      -4.876   0.309  -0.296  1.00  0.00    -0.129 NA
ATOM     28  C   UNL     1      -4.682   2.064   1.787  1.00  0.00     0.053 A 
ATOM     29  N   UNL     1      -5.948   0.510   0.563  1.00  0.00    -0.131 NA
ATOM     30  C   UNL     1      -5.865   1.357   1.607  1.00  0.00     0.151 A 
BRANCH  30  31
ATOM     31  N   UNL     1      -6.959   1.576   2.470  1.00  0.00    -0.351 N 
ATOM     32  C   UNL     1      -6.660   1.240   3.879  1.00  0.00     0.146 C 
ATOM     33  C   UNL     1      -8.192   0.900   2.001  1.00  0.00     0.146 C 
ATOM     34  C   UNL     1      -7.884   1.554   4.758  1.00  0.00     0.181 C 
ATOM     35  C   UNL     1      -9.356   1.235   2.947  1.00  0.00     0.181 C 
ATOM     36  O   UNL     1      -9.055   0.860   4.302  1.00  0.00    -0.378 OA
ENDBRANCH  30  31
ENDBRANCH  22  25
ENDBRANCH  17  18
ENDBRANCH  16  17
ENDBRANCH   2  16
TORSDOF 9
