REMARK SMILES CCOc1ccc(OCC)c(NS(=O)(=O)c2c(C(=O)N3CCC(C)CC3)c(C)n(C)c2C)c1
REMARK SMILES IDX 12 1 11 3 4 4 5 5 33 6 6 7 7 8 3 9 2 10 1 11 8 12 9 13 10 14
REMARK SMILES IDX 13 15 14 16 15 17 16 18 17 19 31 20 27 21 29 22 32 23 28 24
REMARK SMILES IDX 30 25 18 26 19 27 20 28 21 29 26 30 22 31 25 32 23 33 24 34
REMARK H PARENT 12 2
ROOT
ATOM      1  N   UNL     1      -1.261   0.905   1.884  1.00  0.00    -0.276 N 
ATOM      2  H   UNL     1      -0.708   0.052   2.071  1.00  0.00     0.180 HD
ENDROOT
BRANCH   1   3
ATOM      3  C   UNL     1      -2.539   0.589   1.300  1.00  0.00     0.095 A 
ATOM      4  C   UNL     1      -4.800   1.271   0.747  1.00  0.00     0.121 A 
ATOM      5  C   UNL     1      -4.995   0.050   0.104  1.00  0.00     0.050 A 
ATOM      6  C   UNL     1      -3.564   1.535   1.341  1.00  0.00     0.077 A 
ATOM      7  C   UNL     1      -3.967  -0.903   0.057  1.00  0.00     0.052 A 
ATOM      8  C   UNL     1      -2.731  -0.639   0.646  1.00  0.00     0.143 A 
BRANCH   4   9
ATOM      9  O   UNL     1      -5.712   2.282   0.860  1.00  0.00    -0.494 OA
BRANCH   9  10
ATOM     10  C   UNL     1      -7.041   2.077   0.387  1.00  0.00     0.226 C 
ATOM     11  C   UNL     1      -7.156   2.456  -1.080  1.00  0.00     0.049 C 
ENDBRANCH   9  10
ENDBRANCH   4   9
BRANCH   8  12
ATOM     12  O   UNL     1      -1.670  -1.501   0.679  1.00  0.00    -0.492 OA
BRANCH  12  13
ATOM     13  C   UNL     1      -1.646  -2.605  -0.221  1.00  0.00     0.226 C 
ATOM     14  C   UNL     1      -2.179  -3.853   0.458  1.00  0.00     0.049 C 
ENDBRANCH  12  13
ENDBRANCH   8  12
ENDBRANCH   1   3
BRANCH   1  15
ATOM     15  S   UNL     1      -0.281   1.949   0.970  1.00  0.00     0.264 S 
ATOM     16  O   UNL     1       0.940   2.192   1.713  1.00  0.00    -0.201 OA
ATOM     17  O   UNL     1      -1.058   3.054   0.452  1.00  0.00    -0.201 OA
BRANCH  15  18
ATOM     18  C   UNL     1       0.271   1.073  -0.430  1.00  0.00     0.121 A 
ATOM     19  C   UNL     1       1.217   0.013  -0.346  1.00  0.00     0.081 A 
ATOM     20  C   UNL     1      -0.101   1.223  -1.759  1.00  0.00     0.036 A 
ATOM     21  C   UNL     1       1.413  -0.459  -1.640  1.00  0.00     0.029 A 
ATOM     22  N   UNL     1       0.660   0.329  -2.490  1.00  0.00    -0.350 N 
ATOM     23  C   UNL     1      -1.102   2.146  -2.368  1.00  0.00     0.066 C 
ATOM     24  C   UNL     1       2.244  -1.604  -2.113  1.00  0.00     0.065 C 
ATOM     25  C   UNL     1       0.648   0.225  -3.937  1.00  0.00     0.149 C 
BRANCH  19  26
ATOM     26  C   UNL     1       1.783  -0.523   0.889  1.00  0.00     0.257 C 
ATOM     27  O   UNL     1       1.028  -0.896   1.786  1.00  0.00    -0.269 OA
ATOM     28  N   UNL     1       3.180  -0.602   0.986  1.00  0.00    -0.339 N 
ATOM     29  C   UNL     1       4.025   0.405   0.338  1.00  0.00     0.120 C 
ATOM     30  C   UNL     1       3.699  -1.139   2.239  1.00  0.00     0.120 C 
ATOM     31  C   UNL     1       5.462  -0.080   0.169  1.00  0.00     0.025 C 
ATOM     32  C   UNL     1       5.133  -1.644   2.098  1.00  0.00     0.025 C 
ATOM     33  C   UNL     1       6.071  -0.602   1.476  1.00  0.00    -0.011 C 
ATOM     34  C   UNL     1       6.392   0.532   2.452  1.00  0.00     0.008 C 
ENDBRANCH  19  26
ENDBRANCH  15  18
ENDBRANCH   1  15
TORSDOF 8
