REMARK SMILES O=S(=O)(c1ccc(O)cc1)c1ccc(O)cc1
REMARK SMILES IDX 1 1 2 2 3 3 4 4 5 5 10 6 6 7 9 8 7 9 8 10 11 12 12 13 17 14
REMARK SMILES IDX 13 15 16 16 14 17 15 18
REMARK H PARENT 8 11 15 19
ROOT
ATOM      1  O   UNL     1       0.044   0.156  -2.921  1.00  0.00    -0.219 OA
ATOM      2  S   UNL     1       0.092   0.906  -1.679  1.00  0.00     0.206 S 
ATOM      3  O   UNL     1       0.211   2.353  -1.693  1.00  0.00    -0.219 OA
ENDROOT
BRANCH   2   4
ATOM      4  C   UNL     1      -1.382   0.486  -0.776  1.00  0.00     0.072 A 
ATOM      5  C   UNL     1      -1.743  -0.860  -0.654  1.00  0.00     0.024 A 
ATOM      6  C   UNL     1      -2.169   1.495  -0.212  1.00  0.00     0.024 A 
ATOM      7  C   UNL     1      -2.895  -1.195   0.057  1.00  0.00     0.047 A 
ATOM      8  C   UNL     1      -3.322   1.152   0.496  1.00  0.00     0.047 A 
ATOM      9  C   UNL     1      -3.673  -0.190   0.626  1.00  0.00     0.115 A 
BRANCH   9  10
ATOM     10  O   UNL     1      -4.790  -0.568   1.309  1.00  0.00    -0.508 OA
ATOM     11  H   UNL     1      -5.249   0.227   1.626  1.00  0.00     0.293 HD
ENDBRANCH   9  10
ENDBRANCH   2   4
BRANCH   2  12
ATOM     12  C   UNL     1       1.461   0.295  -0.722  1.00  0.00     0.072 A 
ATOM     13  C   UNL     1       2.244  -0.756  -1.211  1.00  0.00     0.024 A 
ATOM     14  C   UNL     1       1.746   0.888   0.512  1.00  0.00     0.024 A 
ATOM     15  C   UNL     1       3.314  -1.228  -0.449  1.00  0.00     0.047 A 
ATOM     16  C   UNL     1       2.815   0.410   1.269  1.00  0.00     0.047 A 
ATOM     17  C   UNL     1       3.588  -0.642   0.785  1.00  0.00     0.115 A 
BRANCH  17  18
ATOM     18  O   UNL     1       4.623  -1.073   1.561  1.00  0.00    -0.508 OA
ATOM     19  H   UNL     1       5.090  -1.785   1.094  1.00  0.00     0.293 HD
ENDBRANCH  17  18
ENDBRANCH   2  12
TORSDOF 4
