REMARK SMILES CC(=O)Oc1ccc(-c2coc3cc(OC(C)=O)ccc3c2=O)cc1
REMARK SMILES IDX 9 1 10 2 11 3 12 4 13 5 14 6 19 7 20 8 21 9 22 10 23 11 8 12
REMARK SMILES IDX 5 13 6 14 25 15 7 16 24 17 4 18 2 19 3 20 1 21 15 22 16 23
REMARK SMILES IDX 18 24 17 25
REMARK H PARENT
ROOT
ATOM      1  C   UNL     1       0.384  -0.052  -0.042  1.00  0.00     0.065 C 
ATOM      2  C   UNL     1      -0.146  -1.266  -0.263  1.00  0.00     0.208 C 
ATOM      3  O   UNL     1      -1.472  -1.562  -0.471  1.00  0.00    -0.463 OA
ATOM      4  C   UNL     1      -2.368  -0.525  -0.446  1.00  0.00     0.141 A 
ATOM      5  C   UNL     1      -3.711  -0.841  -0.644  1.00  0.00     0.095 A 
ATOM      6  C   UNL     1      -4.657   0.184  -0.616  1.00  0.00     0.134 A 
ATOM      7  C   UNL     1      -4.284   1.515  -0.430  1.00  0.00     0.048 A 
ATOM      8  C   UNL     1      -2.938   1.824  -0.235  1.00  0.00     0.020 A 
ATOM      9  C   UNL     1      -1.982   0.799  -0.241  1.00  0.00     0.066 A 
ATOM     10  C   UNL     1      -0.554   1.106  -0.038  1.00  0.00     0.200 C 
ATOM     11  O   UNL     1      -0.182   2.263   0.123  1.00  0.00    -0.288 OA
ENDROOT
BRANCH   1  12
ATOM     12  C   UNL     1       1.838   0.106   0.151  1.00  0.00    -0.011 A 
ATOM     13  C   UNL     1       4.600   0.389   0.484  1.00  0.00     0.130 A 
ATOM     14  C   UNL     1       3.908  -0.532   1.265  1.00  0.00     0.048 A 
ATOM     15  C   UNL     1       3.935   1.195  -0.435  1.00  0.00     0.048 A 
ATOM     16  C   UNL     1       2.529  -0.676   1.092  1.00  0.00     0.013 A 
ATOM     17  C   UNL     1       2.556   1.048  -0.603  1.00  0.00     0.013 A 
BRANCH  13  18
ATOM     18  O   UNL     1       5.971   0.595   0.664  1.00  0.00    -0.427 OA
BRANCH  18  19
ATOM     19  C   UNL     1       6.774  -0.468   0.268  1.00  0.00     0.308 C 
ATOM     20  O   UNL     1       6.407  -1.532  -0.214  1.00  0.00    -0.252 OA
ATOM     21  C   UNL     1       8.207  -0.108   0.524  1.00  0.00     0.139 C 
ENDBRANCH  18  19
ENDBRANCH  13  18
ENDBRANCH   1  12
BRANCH   6  22
ATOM     22  O   UNL     1      -6.004  -0.101  -0.853  1.00  0.00    -0.427 OA
BRANCH  22  23
ATOM     23  C   UNL     1      -6.652  -0.660   0.243  1.00  0.00     0.308 C 
ATOM     24  O   UNL     1      -6.165  -0.909   1.337  1.00  0.00    -0.252 OA
ATOM     25  C   UNL     1      -8.082  -0.922  -0.125  1.00  0.00     0.139 C 
ENDBRANCH  22  23
ENDBRANCH   6  22
TORSDOF 5
