REMARK SMILES CC(=O)OCC(=O)[C@@]12OC(C)(C)O[C@H]1C[C@H]1[C@@H]3CCC4=CC(=O)C=C[C@]4(C)[C@@]3(F)[C@@H](O)C[C@@]12C
REMARK SMILES IDX 6 1 7 2 5 3 4 4 2 5 3 6 1 7 8 8 9 9 14 10 33 11 10 12 13 13
REMARK SMILES IDX 15 14 32 15 16 16 30 17 17 18 28 19 18 20 26 21 19 22 25 23
REMARK SMILES IDX 20 24 24 25 21 26 22 27 23 28 34 29 11 30 12 31 29 32 27 33
REMARK SMILES IDX 31 34
REMARK H PARENT 31 35
ROOT
ATOM      1  C   UNL     1       2.993   0.292   0.429  1.00  0.00     0.205 C 
ATOM      2  O   UNL     1       3.155   1.370   1.007  1.00  0.00    -0.292 OA
ENDROOT
BRANCH   1   3
ATOM      3  C   UNL     1       3.958  -0.186  -0.666  1.00  0.00     0.311 C 
BRANCH   3   4
ATOM      4  O   UNL     1       4.789   0.880  -1.131  1.00  0.00    -0.458 OA
BRANCH   4   5
ATOM      5  C   UNL     1       5.946   1.050  -0.434  1.00  0.00     0.303 C 
ATOM      6  O   UNL     1       6.362   0.309   0.444  1.00  0.00    -0.253 OA
ATOM      7  C   UNL     1       6.661   2.273  -0.920  1.00  0.00     0.139 C 
ENDBRANCH   4   5
ENDBRANCH   3   4
ENDBRANCH   1   3
BRANCH   1   8
ATOM      8  C   UNL     1       1.764  -0.629   0.697  1.00  0.00     0.165 C 
ATOM      9  O   UNL     1       2.297  -1.955   0.808  1.00  0.00    -0.333 OA
ATOM     10  C   UNL     1       1.178  -0.520   2.095  1.00  0.00     0.162 C 
ATOM     11  C   UNL     1       0.524  -0.240  -0.211  1.00  0.00     0.012 C 
ATOM     12  C   UNL     1       2.766  -2.020   2.214  1.00  0.00     0.164 C 
ATOM     13  O   UNL     1       2.251  -0.854   2.931  1.00  0.00    -0.344 OA
ATOM     14  C   UNL     1       0.267   0.696   2.060  1.00  0.00     0.040 C 
ATOM     15  C   UNL     1      -0.138  -1.365  -1.021  1.00  0.00     0.045 C 
ATOM     16  C   UNL     1      -0.552   0.198   0.850  1.00  0.00     0.008 C 
ATOM     17  C   UNL     1      -1.491  -0.924  -1.664  1.00  0.00     0.154 C 
ATOM     18  C   UNL     1      -1.741   0.920   0.227  1.00  0.00     0.035 C 
ATOM     19  C   UNL     1      -2.465  -0.119  -0.717  1.00  0.00     0.152 C 
ATOM     20  C   UNL     1      -2.709   1.449   1.297  1.00  0.00     0.012 C 
ATOM     21  C   UNL     1      -3.741   0.523  -1.399  1.00  0.00     0.044 C 
ATOM     22  C   UNL     1      -3.954   2.071   0.670  1.00  0.00     0.032 C 
ATOM     23  C   UNL     1      -4.508  -0.520  -2.210  1.00  0.00    -0.009 C 
ATOM     24  C   UNL     1      -4.625   1.103  -0.274  1.00  0.00    -0.053 C 
ATOM     25  C   UNL     1      -5.786  -0.868  -2.010  1.00  0.00     0.048 C 
ATOM     26  C   UNL     1      -5.908   0.749  -0.080  1.00  0.00     0.052 C 
ATOM     27  C   UNL     1      -6.585  -0.244  -0.938  1.00  0.00     0.178 C 
ATOM     28  O   UNL     1      -7.760  -0.540  -0.767  1.00  0.00    -0.290 OA
ATOM     29  C   UNL     1       0.873   0.950  -1.155  1.00  0.00     0.015 C 
ATOM     30  C   UNL     1       2.222  -3.314   2.828  1.00  0.00     0.075 C 
ATOM     31  C   UNL     1       4.289  -2.019   2.303  1.00  0.00     0.075 C 
ATOM     32  F   UNL     1      -2.954  -1.104   0.141  1.00  0.00    -0.239 F 
ATOM     33  C   UNL     1      -3.415   1.672  -2.380  1.00  0.00     0.024 C 
BRANCH  17  34
ATOM     34  O   UNL     1      -1.225  -0.249  -2.890  1.00  0.00    -0.390 OA
ATOM     35  H   UNL     1      -0.758  -0.870  -3.477  1.00  0.00     0.211 HD
ENDBRANCH  17  34
ENDBRANCH   1   8
TORSDOF 5
