REMARK SMILES CC(C)c1ccc(C(C)C)cc1
REMARK SMILES IDX 4 1 5 2 6 3 7 4 11 5 12 6 2 7 1 8 3 9 8 10 9 11 10 12
REMARK H PARENT
ROOT
ATOM      1  C   UNL     1       1.422  -0.016  -0.304  1.00  0.00    -0.045 A 
ATOM      2  C   UNL     1       0.725   0.095  -1.515  1.00  0.00     0.004 A 
ATOM      3  C   UNL     1      -0.672   0.135  -1.536  1.00  0.00     0.004 A 
ATOM      4  C   UNL     1      -1.411   0.065  -0.347  1.00  0.00    -0.045 A 
ATOM      5  C   UNL     1      -0.714  -0.046   0.863  1.00  0.00     0.004 A 
ATOM      6  C   UNL     1       0.684  -0.086   0.885  1.00  0.00     0.004 A 
ENDROOT
BRANCH   1   7
ATOM      7  C   UNL     1       2.939  -0.057  -0.306  1.00  0.00     0.013 C 
ATOM      8  C   UNL     1       3.467  -1.379   0.257  1.00  0.00     0.012 C 
ATOM      9  C   UNL     1       3.536   1.134   0.447  1.00  0.00     0.012 C 
ENDBRANCH   1   7
BRANCH   4  10
ATOM     10  C   UNL     1      -2.927   0.110  -0.396  1.00  0.00     0.013 C 
ATOM     11  C   UNL     1      -3.477   1.334   0.341  1.00  0.00     0.012 C 
ATOM     12  C   UNL     1      -3.546  -1.179   0.150  1.00  0.00     0.012 C 
ENDBRANCH   4  10
TORSDOF 2
