REMARK SMILES CC1CCCN(S(=O)(=O)c2cc(C(=O)NCCc3ccccc3)n(C)c2)C1
REMARK SMILES IDX 10 1 11 2 12 3 24 4 25 5 26 6 7 7 8 8 9 9 6 10 2 11 3 12
REMARK SMILES IDX 27 13 4 14 5 15 1 16 13 17 14 18 15 19 16 21 17 22 18 23
REMARK SMILES IDX 19 24 23 25 20 26 22 27 21 28
REMARK H PARENT 15 20
ROOT
ATOM      1  C   UNL     1      -1.048   0.233  -0.645  1.00  0.00     0.101 A 
ATOM      2  C   UNL     1      -0.406   0.271   0.615  1.00  0.00     0.055 A 
ATOM      3  C   UNL     1       0.746  -0.504   0.540  1.00  0.00     0.108 A 
ATOM      4  N   UNL     1       0.768  -1.048  -0.733  1.00  0.00    -0.345 N 
ATOM      5  C   UNL     1       1.706  -2.032  -1.232  1.00  0.00     0.150 C 
ATOM      6  C   UNL     1      -0.297  -0.583  -1.464  1.00  0.00     0.107 A 
ENDROOT
BRANCH   1   7
ATOM      7  S   UNL     1      -2.510   1.061  -1.047  1.00  0.00     0.244 S 
ATOM      8  O   UNL     1      -2.132   2.457  -1.029  1.00  0.00    -0.207 OA
ATOM      9  O   UNL     1      -2.991   0.413  -2.249  1.00  0.00    -0.207 OA
BRANCH   7  10
ATOM     10  N   UNL     1      -3.644   0.786   0.194  1.00  0.00    -0.198 NA
ATOM     11  C   UNL     1      -6.120   0.977  -0.114  1.00  0.00     0.001 C 
ATOM     12  C   UNL     1      -6.390  -0.104   0.942  1.00  0.00     0.006 C 
ATOM     13  C   UNL     1      -4.811   1.714   0.183  1.00  0.00     0.105 C 
ATOM     14  C   UNL     1      -5.104  -0.752   1.455  1.00  0.00     0.017 C 
ATOM     15  C   UNL     1      -3.976  -0.643   0.438  1.00  0.00     0.102 C 
ATOM     16  C   UNL     1      -7.294   1.950  -0.206  1.00  0.00     0.009 C 
ENDBRANCH   7  10
ENDBRANCH   1   7
BRANCH   3  17
ATOM     17  C   UNL     1       1.695  -0.723   1.614  1.00  0.00     0.267 C 
ATOM     18  O   UNL     1       1.362  -0.808   2.791  1.00  0.00    -0.268 OA
ATOM     19  N   UNL     1       3.012  -0.768   1.211  1.00  0.00    -0.350 N 
ATOM     20  H   UNL     1       3.210  -0.312   0.329  1.00  0.00     0.163 HD
BRANCH  19  21
ATOM     21  C   UNL     1       4.084  -0.752   2.191  1.00  0.00     0.121 C 
BRANCH  21  22
ATOM     22  C   UNL     1       5.413  -1.246   1.613  1.00  0.00     0.057 C 
BRANCH  22  23
ATOM     23  C   UNL     1       5.898  -0.429   0.437  1.00  0.00    -0.046 A 
ATOM     24  C   UNL     1       5.931  -0.987  -0.849  1.00  0.00     0.004 A 
ATOM     25  C   UNL     1       6.309   0.899   0.611  1.00  0.00     0.004 A 
ATOM     26  C   UNL     1       6.356  -0.228  -1.939  1.00  0.00     0.000 A 
ATOM     27  C   UNL     1       6.733   1.657  -0.481  1.00  0.00     0.000 A 
ATOM     28  C   UNL     1       6.756   1.094  -1.756  1.00  0.00     0.000 A 
ENDBRANCH  22  23
ENDBRANCH  21  22
ENDBRANCH  19  21
ENDBRANCH   3  17
TORSDOF 6
