REMARK SMILES Cc1ccc(CNC(=O)CN2C(=O)C3CCCCN3c3ccc(C(=O)N(C)C)cc32)cc1
REMARK SMILES IDX 7 1 8 2 9 3 6 5 5 6 2 7 3 8 32 9 4 10 31 11 1 12 10 13 11 14
REMARK SMILES IDX 12 15 30 16 13 17 14 18 29 19 20 20 15 21 19 22 23 23 21 24
REMARK SMILES IDX 16 25 18 26 22 27 17 28 24 29 25 30 26 31 27 32 28 33
REMARK H PARENT 7 4
ROOT
ATOM      1  N   UNL     1      -2.214   1.632  -0.199  1.00  0.00    -0.350 N 
ATOM      2  C   UNL     1      -1.388   0.535  -0.041  1.00  0.00     0.240 C 
ATOM      3  O   UNL     1      -1.304  -0.094   1.010  1.00  0.00    -0.273 OA
ATOM      4  H   UNL     1      -2.397   1.978  -1.131  1.00  0.00     0.163 HD
ENDROOT
BRANCH   1   5
ATOM      5  C   UNL     1      -3.123   2.051   0.844  1.00  0.00     0.151 C 
BRANCH   5   6
ATOM      6  C   UNL     1      -4.533   1.633   0.516  1.00  0.00    -0.029 A 
ATOM      7  C   UNL     1      -7.154   0.823  -0.132  1.00  0.00    -0.051 A 
ATOM      8  C   UNL     1      -6.751   2.149  -0.328  1.00  0.00     0.004 A 
ATOM      9  C   UNL     1      -6.229  -0.100   0.369  1.00  0.00     0.004 A 
ATOM     10  C   UNL     1      -5.453   2.552  -0.006  1.00  0.00     0.006 A 
ATOM     11  C   UNL     1      -4.932   0.302   0.693  1.00  0.00     0.006 A 
ATOM     12  C   UNL     1      -8.537   0.383  -0.510  1.00  0.00     0.044 C 
ENDBRANCH   5   6
ENDBRANCH   1   5
BRANCH   2  13
ATOM     13  C   UNL     1      -0.607   0.181  -1.313  1.00  0.00     0.225 C 
BRANCH  13  14
ATOM     14  N   UNL     1       0.463  -0.777  -1.044  1.00  0.00    -0.299 N 
ATOM     15  C   UNL     1       0.160  -2.115  -1.215  1.00  0.00     0.250 C 
ATOM     16  C   UNL     1       1.733  -0.356  -0.546  1.00  0.00     0.069 A 
ATOM     17  O   UNL     1      -0.921  -2.490  -1.687  1.00  0.00    -0.272 OA
ATOM     18  C   UNL     1       1.178  -3.153  -0.760  1.00  0.00     0.172 C 
ATOM     19  C   UNL     1       1.987   1.009  -0.302  1.00  0.00     0.042 A 
ATOM     20  C   UNL     1       2.757  -1.308  -0.315  1.00  0.00     0.062 A 
ATOM     21  C   UNL     1       0.665  -3.858   0.500  1.00  0.00     0.035 C 
ATOM     22  N   UNL     1       2.560  -2.679  -0.527  1.00  0.00    -0.358 N 
ATOM     23  C   UNL     1       3.248   1.450   0.106  1.00  0.00     0.042 A 
ATOM     24  C   UNL     1       4.018  -0.824   0.103  1.00  0.00     0.029 A 
ATOM     25  C   UNL     1       1.509  -5.092   0.828  1.00  0.00     0.004 C 
ATOM     26  C   UNL     1       3.456  -3.627   0.165  1.00  0.00     0.117 C 
ATOM     27  C   UNL     1       4.264   0.531   0.327  1.00  0.00     0.016 A 
ATOM     28  C   UNL     1       2.892  -5.046   0.178  1.00  0.00     0.022 C 
BRANCH  23  29
ATOM     29  C   UNL     1       3.456   2.898   0.350  1.00  0.00     0.253 C 
ATOM     30  O   UNL     1       2.617   3.484   1.031  1.00  0.00    -0.269 OA
ATOM     31  N   UNL     1       4.581   3.524  -0.185  1.00  0.00    -0.345 N 
ATOM     32  C   UNL     1       5.335   3.031  -1.329  1.00  0.00     0.146 C 
ATOM     33  C   UNL     1       4.852   4.895   0.213  1.00  0.00     0.146 C 
ENDBRANCH  23  29
ENDBRANCH  13  14
ENDBRANCH   2  13
TORSDOF 5
