REMARK SMILES CC(C)(C)OC(=O)N[C@@H](Cc1c[nH]c2ncccc12)C(=O)O
REMARK SMILES IDX 6 1 7 2 8 3 5 5 2 6 1 7 3 8 4 9 9 10 10 11 11 12 12 13 19 14
REMARK SMILES IDX 13 15 18 16 14 17 17 18 15 19 16 20 20 22 21 23 22 24
REMARK H PARENT 8 4 13 21 22 25
ROOT
ATOM      1  C   UNL     1       1.431   0.331   0.691  1.00  0.00     0.408 C 
ATOM      2  O   UNL     1       0.891   0.842  -0.276  1.00  0.00    -0.225 OA
ATOM      3  N   UNL     1       0.813  -0.492   1.574  1.00  0.00    -0.308 N 
ATOM      4  H   UNL     1       1.336  -0.759   2.401  1.00  0.00     0.168 HD
ENDROOT
BRANCH   1   5
ATOM      5  O   UNL     1       2.719   0.485   1.067  1.00  0.00    -0.444 OA
BRANCH   5   6
ATOM      6  C   UNL     1       3.621   1.320   0.296  1.00  0.00     0.106 C 
ATOM      7  C   UNL     1       4.963   1.232   1.037  1.00  0.00     0.056 C 
ATOM      8  C   UNL     1       3.808   0.774  -1.124  1.00  0.00     0.056 C 
ATOM      9  C   UNL     1       3.159   2.782   0.291  1.00  0.00     0.056 C 
ENDBRANCH   5   6
ENDBRANCH   1   5
BRANCH   3  10
ATOM     10  C   UNL     1      -0.625  -0.767   1.544  1.00  0.00     0.199 C 
BRANCH  10  11
ATOM     11  C   UNL     1      -0.973  -1.785   0.448  1.00  0.00     0.075 C 
BRANCH  11  12
ATOM     12  C   UNL     1      -2.393  -1.692  -0.020  1.00  0.00    -0.018 A 
ATOM     13  C   UNL     1      -3.446  -2.504   0.364  1.00  0.00     0.088 A 
ATOM     14  C   UNL     1      -2.923  -0.746  -0.955  1.00  0.00     0.022 A 
ATOM     15  N   UNL     1      -4.577  -2.082  -0.287  1.00  0.00    -0.346 N 
ATOM     16  C   UNL     1      -2.407   0.324  -1.705  1.00  0.00     0.014 A 
ATOM     17  C   UNL     1      -4.280  -1.020  -1.093  1.00  0.00     0.137 A 
ATOM     18  C   UNL     1      -3.291   1.026  -2.527  1.00  0.00     0.021 A 
ATOM     19  N   UNL     1      -5.174  -0.379  -1.868  1.00  0.00    -0.239 NA
ATOM     20  C   UNL     1      -4.624   0.640  -2.567  1.00  0.00     0.113 A 
ATOM     21  H   UNL     1      -5.503  -2.474  -0.201  1.00  0.00     0.167 HD
ENDBRANCH  11  12
ENDBRANCH  10  11
BRANCH  10  22
ATOM     22  C   UNL     1      -1.060  -1.298   2.916  1.00  0.00     0.326 C 
ATOM     23  O   UNL     1      -2.185  -1.614   3.268  1.00  0.00    -0.250 OA
BRANCH  22  24
ATOM     24  O   UNL     1      -0.037  -1.414   3.801  1.00  0.00    -0.480 OA
ATOM     25  H   UNL     1      -0.478  -1.747   4.612  1.00  0.00     0.296 HD
ENDBRANCH  22  24
ENDBRANCH  10  22
ENDBRANCH   3  10
TORSDOF 7
