REMARK SMILES Cc1ccc(-n2ncc3c(NC(C)c4ccccc4)ncnc32)cc1
REMARK SMILES IDX 6 1 7 2 8 3 9 4 10 5 20 6 21 7 22 8 23 9 5 10 2 11 3 12
REMARK SMILES IDX 25 13 4 14 24 15 1 16 11 17 12 19 13 20 14 21 15 22 19 23
REMARK SMILES IDX 16 24 18 25 17 26
REMARK H PARENT 11 18
ROOT
ATOM      1  N   UNL     1      -2.001   0.152   0.676  1.00  0.00    -0.215 N 
ATOM      2  N   UNL     1      -1.650  -0.254   1.938  1.00  0.00    -0.174 NA
ATOM      3  C   UNL     1      -0.363   0.068   2.048  1.00  0.00     0.150 A 
ATOM      4  C   UNL     1       0.158   0.673   0.894  1.00  0.00     0.082 A 
ATOM      5  C   UNL     1       1.397   1.186   0.473  1.00  0.00     0.141 A 
ATOM      6  N   UNL     1       1.450   1.725  -0.766  1.00  0.00    -0.219 NA
ATOM      7  C   UNL     1       0.345   1.727  -1.531  1.00  0.00     0.226 A 
ATOM      8  N   UNL     1      -0.869   1.250  -1.228  1.00  0.00    -0.216 NA
ATOM      9  C   UNL     1      -0.914   0.728   0.015  1.00  0.00     0.168 A 
ENDROOT
BRANCH   1  10
ATOM     10  C   UNL     1      -3.341  -0.048   0.222  1.00  0.00     0.067 A 
ATOM     11  C   UNL     1      -6.004  -0.488  -0.611  1.00  0.00    -0.051 A 
ATOM     12  C   UNL     1      -5.083   0.130  -1.462  1.00  0.00     0.005 A 
ATOM     13  C   UNL     1      -5.591  -0.868   0.669  1.00  0.00     0.005 A 
ATOM     14  C   UNL     1      -3.761   0.345  -1.054  1.00  0.00     0.029 A 
ATOM     15  C   UNL     1      -4.272  -0.656   1.081  1.00  0.00     0.029 A 
ATOM     16  C   UNL     1      -7.427  -0.684  -1.042  1.00  0.00     0.044 C 
ENDBRANCH   1  10
BRANCH   5  17
ATOM     17  N   UNL     1       2.512   1.179   1.305  1.00  0.00    -0.363 N 
ATOM     18  H   UNL     1       2.399   0.518   2.065  1.00  0.00     0.162 HD
BRANCH  17  19
ATOM     19  C   UNL     1       3.871   1.136   0.755  1.00  0.00     0.108 C 
ATOM     20  C   UNL     1       4.265   2.395  -0.020  1.00  0.00     0.036 C 
BRANCH  19  21
ATOM     21  C   UNL     1       4.150  -0.197   0.078  1.00  0.00    -0.026 A 
ATOM     22  C   UNL     1       3.982  -0.388  -1.302  1.00  0.00     0.006 A 
ATOM     23  C   UNL     1       4.558  -1.296   0.856  1.00  0.00     0.006 A 
ATOM     24  C   UNL     1       4.229  -1.632  -1.888  1.00  0.00     0.000 A 
ATOM     25  C   UNL     1       4.806  -2.538   0.269  1.00  0.00     0.000 A 
ATOM     26  C   UNL     1       4.643  -2.705  -1.104  1.00  0.00     0.000 A 
ENDBRANCH  19  21
ENDBRANCH  17  19
ENDBRANCH   5  17
TORSDOF 4
