REMARK SMILES COC(=O)c1ccc(-c2ccc(C(=O)OC)cn2)nc1
REMARK SMILES IDX 5 1 6 2 7 3 8 4 19 5 20 6 3 7 4 8 2 9 1 10 9 11 10 12 18 13
REMARK SMILES IDX 11 14 17 15 12 16 13 17 14 18 15 19 16 20
REMARK H PARENT
ROOT
ATOM      1  C   UNL     1       3.524  -0.192   0.200  1.00  0.00     0.078 A 
ATOM      2  C   UNL     1       2.916   0.722   1.058  1.00  0.00     0.019 A 
ATOM      3  C   UNL     1       1.530   0.892   1.015  1.00  0.00     0.031 A 
ATOM      4  C   UNL     1       0.768   0.145   0.114  1.00  0.00     0.089 A 
ATOM      5  N   UNL     1       1.355  -0.751  -0.730  1.00  0.00    -0.254 NA
ATOM      6  C   UNL     1       2.705  -0.897  -0.668  1.00  0.00     0.127 A 
ENDROOT
BRANCH   1   7
ATOM      7  C   UNL     1       4.992  -0.373   0.244  1.00  0.00     0.339 C 
ATOM      8  O   UNL     1       5.721   0.244   1.005  1.00  0.00    -0.246 OA
BRANCH   7   9
ATOM      9  O   UNL     1       5.389  -1.300  -0.662  1.00  0.00    -0.465 OA
ATOM     10  C   UNL     1       6.799  -1.529  -0.677  1.00  0.00     0.282 C 
ENDBRANCH   7   9
ENDBRANCH   1   7
BRANCH   4  11
ATOM     11  C   UNL     1      -0.707   0.282   0.022  1.00  0.00     0.089 A 
ATOM     12  C   UNL     1      -1.470  -0.465  -0.880  1.00  0.00     0.031 A 
ATOM     13  N   UNL     1      -1.294   1.177   0.864  1.00  0.00    -0.254 NA
ATOM     14  C   UNL     1      -2.856  -0.297  -0.925  1.00  0.00     0.019 A 
ATOM     15  C   UNL     1      -2.643   1.323   0.802  1.00  0.00     0.127 A 
ATOM     16  C   UNL     1      -3.463   0.617  -0.066  1.00  0.00     0.078 A 
BRANCH  16  17
ATOM     17  C   UNL     1      -4.918   0.874  -0.029  1.00  0.00     0.339 C 
ATOM     18  O   UNL     1      -5.439   1.677   0.728  1.00  0.00    -0.246 OA
BRANCH  17  19
ATOM     19  O   UNL     1      -5.562   0.102  -0.938  1.00  0.00    -0.465 OA
ATOM     20  C   UNL     1      -6.977   0.293  -0.964  1.00  0.00     0.282 C 
ENDBRANCH  17  19
ENDBRANCH  16  17
ENDBRANCH   4  11
TORSDOF 5
