REMARK SMILES CC1=CC(C)(C)NC(=S)N1c1ccccc1C
REMARK SMILES IDX 1 1 2 2 3 3 4 4 5 5 6 6 7 7 8 8 9 9 10 10 11 12 12 13 16 14
REMARK SMILES IDX 13 15 15 16 14 17 17 18
REMARK H PARENT 7 11
ROOT
ATOM      1  C   UNL     1       0.082  -1.395  -1.855  1.00  0.00     0.065 C 
ATOM      2  C   UNL     1      -0.602  -0.591  -0.778  1.00  0.00     0.021 C 
ATOM      3  C   UNL     1      -1.939  -0.458  -0.780  1.00  0.00     0.022 C 
ATOM      4  C   UNL     1      -2.694   0.275   0.286  1.00  0.00     0.054 C 
ATOM      5  C   UNL     1      -3.786   1.147  -0.342  1.00  0.00     0.039 C 
ATOM      6  C   UNL     1      -3.324  -0.739   1.250  1.00  0.00     0.039 C 
ATOM      7  N   UNL     1      -1.769   1.130   1.005  1.00  0.00    -0.354 N 
ATOM      8  C   UNL     1      -0.433   0.869   1.177  1.00  0.00     0.178 C 
ATOM      9  S   UNL     1       0.298   1.648   2.476  1.00  0.00    -0.040 S 
ATOM     10  N   UNL     1       0.161   0.009   0.234  1.00  0.00    -0.292 N 
ATOM     11  H   UNL     1      -2.156   1.724   1.729  1.00  0.00     0.163 HD
ENDROOT
BRANCH  10  12
ATOM     12  C   UNL     1       1.572  -0.225   0.301  1.00  0.00     0.051 A 
ATOM     13  C   UNL     1       2.020  -1.373   0.972  1.00  0.00     0.027 A 
ATOM     14  C   UNL     1       2.495   0.648  -0.307  1.00  0.00    -0.027 A 
ATOM     15  C   UNL     1       3.383  -1.649   1.059  1.00  0.00     0.002 A 
ATOM     16  C   UNL     1       3.864   0.360  -0.196  1.00  0.00     0.005 A 
ATOM     17  C   UNL     1       4.304  -0.781   0.478  1.00  0.00     0.000 A 
ATOM     18  C   UNL     1       2.066   1.898  -1.024  1.00  0.00     0.046 C 
ENDBRANCH  10  12
TORSDOF 1
