REMARK SMILES CCOc1ccc(-c2cc(C(=O)NCc3ccc(C)cc3)c3ccccc3n2)cc1
REMARK SMILES IDX 8 1 9 2 10 3 22 4 23 5 24 6 25 7 26 8 27 9 28 10 7 11 4 12
REMARK SMILES IDX 5 13 30 14 6 15 29 16 3 17 2 18 1 19 11 20 12 21 13 22 14 24
REMARK SMILES IDX 15 25 16 26 21 27 17 28 20 29 18 30 19 31
REMARK H PARENT 13 23
ROOT
ATOM      1  C   UNL     1       1.461  -0.986  -0.112  1.00  0.00     0.072 A 
ATOM      2  C   UNL     1       0.268  -0.809  -0.791  1.00  0.00     0.043 A 
ATOM      3  C   UNL     1      -0.650  -1.860  -0.813  1.00  0.00     0.051 A 
ATOM      4  C   UNL     1      -0.362  -3.098  -0.200  1.00  0.00     0.013 A 
ATOM      5  C   UNL     1      -1.203  -4.241  -0.228  1.00  0.00     0.011 A 
ATOM      6  C   UNL     1      -0.834  -5.422   0.412  1.00  0.00     0.001 A 
ATOM      7  C   UNL     1       0.379  -5.483   1.082  1.00  0.00     0.002 A 
ATOM      8  C   UNL     1       1.218  -4.366   1.096  1.00  0.00     0.029 A 
ATOM      9  C   UNL     1       0.875  -3.179   0.462  1.00  0.00     0.072 A 
ATOM     10  N   UNL     1       1.748  -2.158   0.509  1.00  0.00    -0.248 NA
ENDROOT
BRANCH   1  11
ATOM     11  C   UNL     1       2.497   0.064  -0.007  1.00  0.00     0.000 A 
ATOM     12  C   UNL     1       4.529   2.047   0.199  1.00  0.00     0.119 A 
ATOM     13  C   UNL     1       3.187   2.408   0.073  1.00  0.00     0.047 A 
ATOM     14  C   UNL     1       4.860   0.697   0.222  1.00  0.00     0.047 A 
ATOM     15  C   UNL     1       2.185   1.434  -0.025  1.00  0.00     0.014 A 
ATOM     16  C   UNL     1       3.856  -0.277   0.124  1.00  0.00     0.014 A 
BRANCH  12  17
ATOM     17  O   UNL     1       5.395   3.100   0.280  1.00  0.00    -0.494 OA
BRANCH  17  18
ATOM     18  C   UNL     1       6.774   2.840   0.536  1.00  0.00     0.226 C 
ATOM     19  C   UNL     1       7.534   2.632  -0.762  1.00  0.00     0.049 C 
ENDBRANCH  17  18
ENDBRANCH  12  17
ENDBRANCH   1  11
BRANCH   3  20
ATOM     20  C   UNL     1      -1.929  -1.585  -1.501  1.00  0.00     0.252 C 
ATOM     21  O   UNL     1      -1.925  -1.189  -2.659  1.00  0.00    -0.269 OA
ATOM     22  N   UNL     1      -3.054  -1.733  -0.722  1.00  0.00    -0.348 N 
ATOM     23  H   UNL     1      -2.937  -1.870   0.273  1.00  0.00     0.164 HD
BRANCH  22  24
ATOM     24  C   UNL     1      -4.349  -1.277  -1.176  1.00  0.00     0.152 C 
BRANCH  24  25
ATOM     25  C   UNL     1      -4.648   0.096  -0.633  1.00  0.00    -0.029 A 
ATOM     26  C   UNL     1      -5.375   0.257   0.553  1.00  0.00     0.006 A 
ATOM     27  C   UNL     1      -4.158   1.235  -1.287  1.00  0.00     0.006 A 
ATOM     28  C   UNL     1      -5.624   1.533   1.064  1.00  0.00     0.004 A 
ATOM     29  C   UNL     1      -4.408   2.510  -0.775  1.00  0.00     0.004 A 
ATOM     30  C   UNL     1      -5.154   2.670   0.397  1.00  0.00    -0.051 A 
ATOM     31  C   UNL     1      -5.393   4.038   0.964  1.00  0.00     0.044 C 
ENDBRANCH  24  25
ENDBRANCH  22  24
ENDBRANCH   3  20
TORSDOF 6
