REMARK SMILES CCCCNC(=O)c1ccc(N2CCOCC2)c(NS(=O)(=O)c2ccc(OC)cc2)c1
REMARK SMILES IDX 8 1 9 2 10 3 11 4 18 5 31 6 6 7 5 8 7 9 4 11 3 12 2 13 1 14
REMARK SMILES IDX 19 15 20 17 21 18 22 19 23 20 24 21 30 22 25 23 29 24 26 25
REMARK SMILES IDX 27 26 28 27 12 28 13 29 17 30 14 31 16 32 15 33
REMARK H PARENT 5 10 19 16
ROOT
ATOM      1  C   UNL     1      -1.116  -1.141   0.186  1.00  0.00     0.042 A 
ATOM      2  C   UNL     1      -1.264   0.138  -0.363  1.00  0.00     0.016 A 
ATOM      3  C   UNL     1      -0.438   1.188   0.058  1.00  0.00     0.029 A 
ATOM      4  C   UNL     1       0.547   0.981   1.028  1.00  0.00     0.061 A 
ATOM      5  C   UNL     1       0.701  -0.333   1.543  1.00  0.00     0.073 A 
ATOM      6  C   UNL     1      -0.125  -1.381   1.139  1.00  0.00     0.042 A 
ENDROOT
BRANCH   1   7
ATOM      7  C   UNL     1      -1.970  -2.273  -0.258  1.00  0.00     0.251 C 
ATOM      8  N   UNL     1      -3.275  -1.954  -0.577  1.00  0.00    -0.352 N 
ATOM      9  O   UNL     1      -1.512  -3.407  -0.303  1.00  0.00    -0.269 OA
ATOM     10  H   UNL     1      -3.633  -1.064  -0.261  1.00  0.00     0.163 HD
BRANCH   8  11
ATOM     11  C   UNL     1      -4.222  -3.007  -0.884  1.00  0.00     0.116 C 
BRANCH  11  12
ATOM     12  C   UNL     1      -5.559  -2.470  -1.392  1.00  0.00     0.021 C 
BRANCH  12  13
ATOM     13  C   UNL     1      -6.567  -2.126  -0.290  1.00  0.00    -0.002 C 
ATOM     14  C   UNL     1      -6.146  -0.982   0.617  1.00  0.00     0.004 C 
ENDBRANCH  12  13
ENDBRANCH  11  12
ENDBRANCH   8  11
ENDBRANCH   1   7
BRANCH   5  15
ATOM     15  N   UNL     1       1.773  -0.546   2.475  1.00  0.00    -0.277 N 
ATOM     16  H   UNL     1       2.183   0.346   2.766  1.00  0.00     0.180 HD
BRANCH  15  17
ATOM     17  S   UNL     1       3.030  -1.586   2.021  1.00  0.00     0.261 S 
ATOM     18  O   UNL     1       4.126  -1.318   2.930  1.00  0.00    -0.201 OA
ATOM     19  O   UNL     1       2.511  -2.926   1.858  1.00  0.00    -0.201 OA
BRANCH  17  20
ATOM     20  C   UNL     1       3.512  -0.981   0.418  1.00  0.00     0.088 A 
ATOM     21  C   UNL     1       3.028  -1.602  -0.736  1.00  0.00     0.026 A 
ATOM     22  C   UNL     1       4.401   0.092   0.327  1.00  0.00     0.026 A 
ATOM     23  C   UNL     1       3.409  -1.122  -1.993  1.00  0.00     0.048 A 
ATOM     24  C   UNL     1       4.777   0.562  -0.932  1.00  0.00     0.048 A 
ATOM     25  C   UNL     1       4.282  -0.037  -2.096  1.00  0.00     0.118 A 
BRANCH  25  26
ATOM     26  O   UNL     1       4.723   0.531  -3.259  1.00  0.00    -0.497 OA
ATOM     27  C   UNL     1       4.332  -0.102  -4.471  1.00  0.00     0.278 C 
ENDBRANCH  25  26
ENDBRANCH  17  20
ENDBRANCH  15  17
ENDBRANCH   5  15
BRANCH   4  28
ATOM     28  N   UNL     1       1.389   1.996   1.513  1.00  0.00    -0.365 N 
ATOM     29  C   UNL     1       1.979   2.954   0.551  1.00  0.00     0.145 C 
ATOM     30  C   UNL     1       0.916   2.637   2.765  1.00  0.00     0.145 C 
ATOM     31  C   UNL     1       1.179   4.261   0.418  1.00  0.00     0.181 C 
ATOM     32  C   UNL     1       0.096   3.901   2.479  1.00  0.00     0.181 C 
ATOM     33  O   UNL     1       0.851   4.833   1.691  1.00  0.00    -0.378 OA
ENDBRANCH   4  28
TORSDOF 9
