REMARK SMILES O=C(CN1CCN(S(=O)(=O)c2ccc(Br)cc2)CC1)Nc1ccc(F)cc1F
REMARK SMILES IDX 4 1 5 2 6 3 7 4 18 5 19 6 3 7 2 8 1 9 20 10 21 12 22 13
REMARK SMILES IDX 27 14 23 15 26 16 24 17 28 18 25 19 8 20 9 21 10 22 11 23
REMARK SMILES IDX 12 24 17 25 13 26 16 27 14 28 15 29
REMARK H PARENT 20 11
ROOT
ATOM      1  N   UNL     1       0.293  -0.144   1.281  1.00  0.00    -0.292 NA
ATOM      2  C   UNL     1       0.023   1.316   1.166  1.00  0.00     0.102 C 
ATOM      3  C   UNL     1      -1.354   1.635   0.554  1.00  0.00     0.118 C 
ATOM      4  N   UNL     1      -2.442   1.117   1.424  1.00  0.00    -0.195 NA
ATOM      5  C   UNL     1      -2.079  -0.075   2.234  1.00  0.00     0.118 C 
ATOM      6  C   UNL     1      -0.957  -0.890   1.562  1.00  0.00     0.102 C 
ENDROOT
BRANCH   1   7
ATOM      7  C   UNL     1       1.302  -0.393   2.347  1.00  0.00     0.185 C 
BRANCH   7   8
ATOM      8  C   UNL     1       2.689   0.114   1.923  1.00  0.00     0.238 C 
ATOM      9  O   UNL     1       3.416   0.703   2.713  1.00  0.00    -0.273 OA
ATOM     10  N   UNL     1       2.954  -0.185   0.597  1.00  0.00    -0.322 N 
ATOM     11  H   UNL     1       2.117  -0.428   0.072  1.00  0.00     0.170 HD
BRANCH  10  12
ATOM     12  C   UNL     1       4.142   0.041  -0.123  1.00  0.00     0.077 A 
ATOM     13  C   UNL     1       4.034   0.041  -1.522  1.00  0.00     0.032 A 
ATOM     14  C   UNL     1       5.410   0.230   0.448  1.00  0.00     0.149 A 
ATOM     15  C   UNL     1       5.157   0.267  -2.322  1.00  0.00     0.041 A 
ATOM     16  C   UNL     1       6.532   0.455  -0.347  1.00  0.00     0.080 A 
ATOM     17  C   UNL     1       6.394   0.479  -1.726  1.00  0.00     0.126 A 
ATOM     18  F   UNL     1       5.613   0.122   1.767  1.00  0.00    -0.205 F 
ATOM     19  F   UNL     1       7.469   0.691  -2.495  1.00  0.00    -0.207 F 
ENDBRANCH  10  12
ENDBRANCH   7   8
ENDBRANCH   1   7
BRANCH   4  20
ATOM     20  S   UNL     1      -4.027   1.252   0.852  1.00  0.00     0.243 S 
ATOM     21  O   UNL     1      -4.925   0.863   1.918  1.00  0.00    -0.207 OA
ATOM     22  O   UNL     1      -4.157   2.531   0.188  1.00  0.00    -0.207 OA
BRANCH  20  23
ATOM     23  C   UNL     1      -4.121  -0.010  -0.406  1.00  0.00     0.082 A 
ATOM     24  C   UNL     1      -3.824   0.313  -1.735  1.00  0.00     0.023 A 
ATOM     25  C   UNL     1      -4.559  -1.295  -0.067  1.00  0.00     0.023 A 
ATOM     26  C   UNL     1      -3.920  -0.670  -2.722  1.00  0.00     0.017 A 
ATOM     27  C   UNL     1      -4.653  -2.275  -1.058  1.00  0.00     0.017 A 
ATOM     28  C   UNL     1      -4.328  -1.959  -2.378  1.00  0.00     0.018 A 
ATOM     29  Br  UNL     1      -4.455  -3.288  -3.716  1.00  0.00    -0.051 Br
ENDBRANCH  20  23
ENDBRANCH   4  20
TORSDOF 5
