REMARK SMILES CCOC(=O)CC(=O)OC(C)(C)C
REMARK SMILES IDX 6 1 4 2 5 3 3 4 2 5 1 6 7 7 8 8 9 9 10 10 11 11 12 12 13 13
REMARK H PARENT
ROOT
ATOM      1  C   UNL     1       0.849  -0.239  -1.217  1.00  0.00     0.245 C 
ENDROOT
BRANCH   1   2
ATOM      2  C   UNL     1       2.217  -0.526  -0.687  1.00  0.00     0.317 C 
ATOM      3  O   UNL     1       2.905  -1.472  -1.049  1.00  0.00    -0.252 OA
BRANCH   2   4
ATOM      4  O   UNL     1       2.596   0.430   0.206  1.00  0.00    -0.466 OA
BRANCH   4   5
ATOM      5  C   UNL     1       3.884   0.244   0.811  1.00  0.00     0.229 C 
ATOM      6  C   UNL     1       4.961   0.876  -0.049  1.00  0.00     0.049 C 
ENDBRANCH   4   5
ENDBRANCH   2   4
ENDBRANCH   1   2
BRANCH   1   7
ATOM      7  C   UNL     1      -0.228  -0.478  -0.207  1.00  0.00     0.317 C 
ATOM      8  O   UNL     1      -0.069  -0.987   0.891  1.00  0.00    -0.252 OA
BRANCH   7   9
ATOM      9  O   UNL     1      -1.417  -0.053  -0.720  1.00  0.00    -0.460 OA
BRANCH   9  10
ATOM     10  C   UNL     1      -2.644  -0.174   0.046  1.00  0.00     0.104 C 
ATOM     11  C   UNL     1      -3.733   0.411  -0.867  1.00  0.00     0.056 C 
ATOM     12  C   UNL     1      -2.980  -1.642   0.330  1.00  0.00     0.056 C 
ATOM     13  C   UNL     1      -2.583   0.660   1.331  1.00  0.00     0.056 C 
ENDBRANCH   9  10
ENDBRANCH   7   9
ENDBRANCH   1   7
TORSDOF 6
