REMARK SMILES CCc1ccc(C[C@H](N)C(=O)O)cc1
REMARK SMILES IDX 7 1 6 2 3 3 4 4 14 5 5 6 13 7 2 8 1 9 8 10 9 11 10 14 11 15
REMARK SMILES IDX 12 16
REMARK H PARENT 9 12 9 13 12 17
ROOT
ATOM      1  C   UNL     1      -2.059  -0.550  -1.128  1.00  0.00     0.066 C 
ENDROOT
BRANCH   1   2
ATOM      2  C   UNL     1      -0.587  -0.267  -0.937  1.00  0.00    -0.046 A 
ATOM      3  C   UNL     1       2.153   0.264  -0.548  1.00  0.00    -0.048 A 
ATOM      4  C   UNL     1       1.249   1.312  -0.756  1.00  0.00     0.004 A 
ATOM      5  C   UNL     1       1.674  -1.052  -0.527  1.00  0.00     0.004 A 
ATOM      6  C   UNL     1      -0.109   1.049  -0.950  1.00  0.00     0.004 A 
ATOM      7  C   UNL     1       0.316  -1.315  -0.721  1.00  0.00     0.004 A 
BRANCH   3   8
ATOM      8  C   UNL     1       3.615   0.549  -0.320  1.00  0.00     0.032 C 
ATOM      9  C   UNL     1       3.929   0.749   1.155  1.00  0.00     0.009 C 
ENDBRANCH   3   8
ENDBRANCH   1   2
BRANCH   1  10
ATOM     10  C   UNL     1      -2.792  -0.864   0.187  1.00  0.00     0.166 C 
BRANCH  10  11
ATOM     11  N   UNL     1      -4.188  -1.297  -0.072  1.00  0.00    -0.318 NA
ATOM     12  H   UNL     1      -4.192  -2.025  -0.784  1.00  0.00     0.119 HD
ATOM     13  H   UNL     1      -4.704  -0.506  -0.465  1.00  0.00     0.119 HD
ENDBRANCH  10  11
BRANCH  10  14
ATOM     14  C   UNL     1      -2.823   0.385   1.070  1.00  0.00     0.320 C 
ATOM     15  O   UNL     1      -3.386   1.439   0.807  1.00  0.00    -0.251 OA
BRANCH  14  16
ATOM     16  O   UNL     1      -2.154   0.236   2.230  1.00  0.00    -0.480 OA
ATOM     17  H   UNL     1      -2.272   1.096   2.684  1.00  0.00     0.296 HD
ENDBRANCH  14  16
ENDBRANCH  10  14
ENDBRANCH   1  10
TORSDOF 6
