REMARK SMILES CC1COC(c2ccc3c(c2)OCO3)O1
REMARK SMILES IDX 1 1 2 2 3 3 4 4 5 5 15 6 6 7 7 8 11 9 8 10 10 11 9 12 12 13
REMARK SMILES IDX 14 14 13 15
REMARK H PARENT
ROOT
ATOM      1  C   UNL     1      -2.478   1.597  -0.263  1.00  0.00     0.041 C 
ATOM      2  C   UNL     1      -2.946   0.331   0.444  1.00  0.00     0.144 C 
ATOM      3  C   UNL     1      -3.281  -0.792  -0.507  1.00  0.00     0.195 C 
ATOM      4  O   UNL     1      -2.017  -1.380  -0.802  1.00  0.00    -0.346 OA
ATOM      5  C   UNL     1      -1.240  -1.189   0.390  1.00  0.00     0.282 C 
ATOM      6  O   UNL     1      -1.877  -0.207   1.225  1.00  0.00    -0.343 OA
ENDROOT
BRANCH   5   7
ATOM      7  C   UNL     1       0.185  -0.785   0.058  1.00  0.00     0.012 A 
ATOM      8  C   UNL     1       0.791  -1.201  -1.154  1.00  0.00     0.013 A 
ATOM      9  C   UNL     1       0.947  -0.040   0.977  1.00  0.00     0.059 A 
ATOM     10  C   UNL     1       2.115  -0.865  -1.460  1.00  0.00     0.051 A 
ATOM     11  C   UNL     1       2.249   0.277   0.649  1.00  0.00     0.166 A 
ATOM     12  C   UNL     1       2.816  -0.123  -0.537  1.00  0.00     0.165 A 
ATOM     13  O   UNL     1       3.110   0.993   1.421  1.00  0.00    -0.454 OA
ATOM     14  O   UNL     1       4.105   0.292  -0.663  1.00  0.00    -0.454 OA
ATOM     15  C   UNL     1       4.282   1.002   0.580  1.00  0.00     0.468 C 
ENDBRANCH   5   7
TORSDOF 1
