REMARK SMILES O=C[C@@H](O)C(O)(CO)CO
REMARK SMILES IDX 5 1 3 2 2 3 1 4 4 5 6 7 7 9 8 10 9 12 10 13
REMARK H PARENT 4 6 6 8 8 11 10 14
ROOT
ATOM      1  C   UNL     1      -0.137  -0.051   0.069  1.00  0.00     0.143 C 
ENDROOT
BRANCH   1   2
ATOM      2  C   UNL     1       1.325  -0.194  -0.412  1.00  0.00     0.214 C 
BRANCH   2   3
ATOM      3  C   UNL     1       2.128   1.088  -0.222  1.00  0.00     0.258 C 
ATOM      4  O   UNL     1       3.302   1.074   0.148  1.00  0.00    -0.300 OA
ENDBRANCH   2   3
BRANCH   2   5
ATOM      5  O   UNL     1       2.002  -1.249   0.280  1.00  0.00    -0.382 OA
ATOM      6  H   UNL     1       2.919  -0.937   0.436  1.00  0.00     0.211 HD
ENDBRANCH   2   5
ENDBRANCH   1   2
BRANCH   1   7
ATOM      7  O   UNL     1      -0.179   0.639   1.341  1.00  0.00    -0.382 OA
ATOM      8  H   UNL     1      -0.743   0.092   1.929  1.00  0.00     0.211 HD
ENDBRANCH   1   7
BRANCH   1   9
ATOM      9  C   UNL     1      -0.799  -1.438   0.261  1.00  0.00     0.196 C 
BRANCH   9  10
ATOM     10  O   UNL     1      -2.082  -1.296   0.883  1.00  0.00    -0.393 OA
ATOM     11  H   UNL     1      -2.615  -0.714   0.300  1.00  0.00     0.210 HD
ENDBRANCH   9  10
ENDBRANCH   1   9
BRANCH   1  12
ATOM     12  C   UNL     1      -0.953   0.807  -0.923  1.00  0.00     0.196 C 
BRANCH  12  13
ATOM     13  O   UNL     1      -2.288   1.000  -0.446  1.00  0.00    -0.393 OA
ATOM     14  H   UNL     1      -2.196   1.496   0.394  1.00  0.00     0.210 HD
ENDBRANCH  12  13
ENDBRANCH   1  12
TORSDOF 8
