REMARK SMILES O=c1cccc2n1C[C@H]1C[C@@H]2CN2CC[C@@H](O)C[C@H]12
REMARK SMILES IDX 17 1 16 3 1 4 2 5 3 6 7 7 4 8 6 9 8 10 5 11 11 12 9 13 10 14
REMARK SMILES IDX 12 15 19 16 13 17 18 18 14 19 15 20
REMARK H PARENT 17 2
ROOT
ATOM      1  O   UNL     1      -4.515  -1.286   0.607  1.00  0.00    -0.393 OA
ATOM      2  H   UNL     1      -4.716  -1.575  -0.301  1.00  0.00     0.210 HD
ENDROOT
BRANCH   1   3
ATOM      3  C   UNL     1      -3.329  -0.497   0.560  1.00  0.00     0.117 C 
ATOM      4  O   UNL     1       3.158  -2.961   0.560  1.00  0.00    -0.269 OA
ATOM      5  C   UNL     1       3.162  -1.827   0.085  1.00  0.00     0.250 C 
ATOM      6  C   UNL     1       4.298  -1.412  -0.777  1.00  0.00     0.072 C 
ATOM      7  N   UNL     1       2.162  -0.873   0.299  1.00  0.00    -0.312 N 
ATOM      8  C   UNL     1       4.349  -0.170  -1.267  1.00  0.00     0.007 C 
ATOM      9  C   UNL     1       2.243   0.427  -0.225  1.00  0.00     0.025 C 
ATOM     10  C   UNL     1       1.077  -1.267   1.206  1.00  0.00     0.131 C 
ATOM     11  C   UNL     1       3.305   0.775  -0.974  1.00  0.00     0.022 C 
ATOM     12  C   UNL     1       1.142   1.441   0.076  1.00  0.00     0.051 C 
ATOM     13  C   UNL     1      -0.130  -0.316   1.192  1.00  0.00     0.027 C 
ATOM     14  C   UNL     1       0.447   1.087   1.382  1.00  0.00     0.018 C 
ATOM     15  C   UNL     1       0.093   1.541  -1.069  1.00  0.00     0.094 C 
ATOM     16  C   UNL     1      -0.894  -0.496  -0.161  1.00  0.00     0.064 C 
ATOM     17  N   UNL     1      -1.144   0.751  -0.900  1.00  0.00    -0.299 NA
ATOM     18  C   UNL     1      -2.176  -1.327   0.012  1.00  0.00     0.051 C 
ATOM     19  C   UNL     1      -2.277   1.550  -0.424  1.00  0.00     0.087 C 
ATOM     20  C   UNL     1      -3.554   0.725  -0.317  1.00  0.00     0.047 C 
ENDBRANCH   1   3
TORSDOF 1
