REMARK SMILES C=C(C)/C=C/C/C(C)=C/COc1c2ccoc2cc2oc(=O)ccc12
REMARK SMILES IDX 7 1 8 2 9 3 6 4 5 5 4 6 2 7 1 8 3 9 10 10 11 11 12 12 13 13
REMARK SMILES IDX 25 14 14 15 17 16 24 17 19 18 15 19 16 20 18 21 23 22 20 23
REMARK SMILES IDX 21 24 22 25
REMARK H PARENT
ROOT
ATOM      1  C   UNL     1      -1.599  -0.431  -0.513  1.00  0.00    -0.070 C 
ATOM      2  C   UNL     1      -1.705  -1.640   0.379  1.00  0.00     0.039 C 
ATOM      3  C   UNL     1      -0.484   0.312  -0.680  1.00  0.00     0.013 C 
ENDROOT
BRANCH   1   4
ATOM      4  C   UNL     1      -2.864  -0.096  -1.282  1.00  0.00     0.057 C 
BRANCH   4   5
ATOM      5  C   UNL     1      -3.922   0.489  -0.388  1.00  0.00    -0.022 C 
ATOM      6  C   UNL     1      -5.121  -0.079  -0.182  1.00  0.00    -0.001 C 
BRANCH   6   7
ATOM      7  C   UNL     1      -6.182   0.441   0.669  1.00  0.00    -0.059 C 
ATOM      8  C   UNL     1      -7.339  -0.233   0.782  1.00  0.00     0.012 C 
ATOM      9  C   UNL     1      -5.971   1.730   1.418  1.00  0.00     0.043 C 
ENDBRANCH   6   7
ENDBRANCH   4   5
ENDBRANCH   1   4
BRANCH   3  10
ATOM     10  C   UNL     1       0.854   0.157  -0.021  1.00  0.00     0.257 C 
BRANCH  10  11
ATOM     11  O   UNL     1       1.813  -0.066  -1.063  1.00  0.00    -0.488 OA
BRANCH  11  12
ATOM     12  C   UNL     1       3.069  -0.250  -0.523  1.00  0.00     0.141 A 
ATOM     13  C   UNL     1       3.463  -1.512  -0.027  1.00  0.00     0.063 A 
ATOM     14  C   UNL     1       4.001   0.807  -0.542  1.00  0.00     0.061 A 
ATOM     15  C   UNL     1       2.861  -2.793   0.104  1.00  0.00     0.054 A 
ATOM     16  C   UNL     1       4.750  -1.650   0.482  1.00  0.00     0.141 A 
ATOM     17  C   UNL     1       3.694   2.120  -1.098  1.00  0.00     0.023 C 
ATOM     18  C   UNL     1       5.277   0.596  -0.010  1.00  0.00     0.145 A 
ATOM     19  C   UNL     1       3.801  -3.609   0.688  1.00  0.00     0.196 A 
ATOM     20  O   UNL     1       4.949  -2.922   0.924  1.00  0.00    -0.464 OA
ATOM     21  C   UNL     1       5.692  -0.628   0.524  1.00  0.00     0.095 A 
ATOM     22  C   UNL     1       4.612   3.091  -1.075  1.00  0.00     0.095 C 
ATOM     23  O   UNL     1       6.234   1.637   0.010  1.00  0.00    -0.422 OA
ATOM     24  C   UNL     1       5.952   2.897  -0.500  1.00  0.00     0.336 C 
ATOM     25  O   UNL     1       6.766   3.812  -0.481  1.00  0.00    -0.246 OA
ENDBRANCH  11  12
ENDBRANCH  10  11
ENDBRANCH   3  10
TORSDOF 6
