REMARK SMILES CC(C)Cc1nnc(NC(=O)CSc2nc(=O)cc(N)n2-c2ccccc2)s1
REMARK SMILES IDX 9 1 10 2 11 3 8 5 5 6 6 7 28 8 7 9 4 10 2 11 1 12 3 13 12 14
REMARK SMILES IDX 13 15 14 16 15 17 21 18 16 19 19 20 17 21 18 22 22 23 23 24
REMARK SMILES IDX 27 25 24 26 26 27 25 28 20 29
REMARK H PARENT 9 4 20 30 20 31
ROOT
ATOM      1  N   UNL     1       1.243   0.782  -0.007  1.00  0.00    -0.300 N 
ATOM      2  C   UNL     1       0.542   0.563  -1.173  1.00  0.00     0.236 C 
ATOM      3  O   UNL     1       0.918  -0.085  -2.146  1.00  0.00    -0.274 OA
ATOM      4  H   UNL     1       0.787   1.271   0.752  1.00  0.00     0.172 HD
ENDROOT
BRANCH   1   5
ATOM      5  C   UNL     1       2.490   0.309   0.312  1.00  0.00     0.212 A 
ATOM      6  C   UNL     1       4.653  -0.643   0.477  1.00  0.00     0.119 A 
ATOM      7  N   UNL     1       4.294  -0.038   1.590  1.00  0.00    -0.142 NA
ATOM      8  S   UNL     1       3.467  -0.578  -0.763  1.00  0.00    -0.080 S 
ATOM      9  N   UNL     1       3.036   0.522   1.489  1.00  0.00    -0.120 NA
BRANCH   6  10
ATOM     10  C   UNL     1       5.956  -1.347   0.272  1.00  0.00     0.072 C 
BRANCH  10  11
ATOM     11  C   UNL     1       7.009  -0.469  -0.430  1.00  0.00    -0.011 C 
ATOM     12  C   UNL     1       8.228  -1.317  -0.800  1.00  0.00     0.008 C 
ATOM     13  C   UNL     1       7.449   0.711   0.442  1.00  0.00     0.008 C 
ENDBRANCH  10  11
ENDBRANCH   6  10
ENDBRANCH   1   5
BRANCH   2  14
ATOM     14  C   UNL     1      -0.803   1.273  -1.194  1.00  0.00     0.178 C 
BRANCH  14  15
ATOM     15  S   UNL     1      -1.856   0.666   0.159  1.00  0.00    -0.077 SA
BRANCH  15  16
ATOM     16  C   UNL     1      -3.373   1.481  -0.278  1.00  0.00     0.178 C 
ATOM     17  N   UNL     1      -3.217   2.700  -0.685  1.00  0.00    -0.184 NA
ATOM     18  N   UNL     1      -4.594   0.811  -0.178  1.00  0.00    -0.275 N 
ATOM     19  C   UNL     1      -4.319   3.416  -1.065  1.00  0.00     0.275 C 
ATOM     20  C   UNL     1      -5.753   1.474  -0.614  1.00  0.00     0.115 C 
ATOM     21  O   UNL     1      -4.267   4.587  -1.422  1.00  0.00    -0.267 OA
ATOM     22  C   UNL     1      -5.632   2.738  -1.054  1.00  0.00     0.118 C 
BRANCH  18  23
ATOM     23  C   UNL     1      -4.685  -0.527   0.313  1.00  0.00     0.050 A 
ATOM     24  C   UNL     1      -4.486  -0.805   1.675  1.00  0.00     0.027 A 
ATOM     25  C   UNL     1      -5.007  -1.585  -0.552  1.00  0.00     0.027 A 
ATOM     26  C   UNL     1      -4.593  -2.112   2.156  1.00  0.00     0.002 A 
ATOM     27  C   UNL     1      -5.114  -2.891  -0.070  1.00  0.00     0.002 A 
ATOM     28  C   UNL     1      -4.906  -3.153   1.283  1.00  0.00     0.000 A 
ENDBRANCH  18  23
BRANCH  20  29
ATOM     29  N   UNL     1      -7.019   0.899  -0.601  1.00  0.00    -0.385 N 
ATOM     30  H   UNL     1      -7.110   0.173   0.108  1.00  0.00     0.158 HD
ATOM     31  H   UNL     1      -7.785   1.565  -0.564  1.00  0.00     0.158 HD
ENDBRANCH  20  29
ENDBRANCH  15  16
ENDBRANCH  14  15
ENDBRANCH   2  14
TORSDOF 8
