REMARK SMILES CC(C)=CCC/C(C)=C/Cc1c(O)ccc2c(=O)c(-c3ccc(O)cc3)coc12
REMARK SMILES IDX 7 1 8 2 9 3 6 4 5 5 4 6 2 7 1 8 3 9 10 10 11 11 12 12 29 13
REMARK SMILES IDX 14 14 28 15 16 16 15 17 27 18 17 19 19 20 18 21 13 22 20 24
REMARK SMILES IDX 21 25 26 26 22 27 25 28 23 29 24 30
REMARK H PARENT 13 23 24 31
ROOT
ATOM      1  C   UNL     1       2.617   0.111  -1.392  1.00  0.00    -0.077 C 
ATOM      2  C   UNL     1       3.175   0.082  -2.791  1.00  0.00     0.039 C 
ATOM      3  C   UNL     1       1.310   0.014  -1.070  1.00  0.00    -0.023 C 
ENDROOT
BRANCH   1   4
ATOM      4  C   UNL     1       3.655   0.286  -0.295  1.00  0.00     0.034 C 
BRANCH   4   5
ATOM      5  C   UNL     1       4.465  -0.989  -0.035  1.00  0.00     0.032 C 
BRANCH   5   6
ATOM      6  C   UNL     1       5.435  -0.801   1.100  1.00  0.00    -0.028 C 
ATOM      7  C   UNL     1       6.766  -0.602   1.020  1.00  0.00    -0.080 C 
ATOM      8  C   UNL     1       7.547  -0.480  -0.259  1.00  0.00     0.039 C 
ATOM      9  C   UNL     1       7.598  -0.467   2.269  1.00  0.00     0.039 C 
ENDBRANCH   5   6
ENDBRANCH   4   5
ENDBRANCH   1   4
BRANCH   3  10
ATOM     10  C   UNL     1       0.126  -0.149  -1.987  1.00  0.00     0.070 C 
BRANCH  10  11
ATOM     11  C   UNL     1      -0.922   0.921  -1.764  1.00  0.00     0.041 A 
ATOM     12  C   UNL     1      -0.779   2.212  -2.299  1.00  0.00     0.122 A 
ATOM     13  C   UNL     1      -2.084   0.647  -1.013  1.00  0.00     0.144 A 
ATOM     14  C   UNL     1      -1.766   3.183  -2.137  1.00  0.00     0.047 A 
ATOM     15  O   UNL     1      -2.210  -0.607  -0.462  1.00  0.00    -0.463 OA
ATOM     16  C   UNL     1      -3.067   1.625  -0.838  1.00  0.00     0.066 A 
ATOM     17  C   UNL     1      -2.914   2.893  -1.405  1.00  0.00     0.020 A 
ATOM     18  C   UNL     1      -3.336  -0.888   0.270  1.00  0.00     0.208 C 
ATOM     19  C   UNL     1      -4.274   1.311  -0.050  1.00  0.00     0.200 C 
ATOM     20  C   UNL     1      -4.366  -0.063   0.514  1.00  0.00     0.065 C 
ATOM     21  O   UNL     1      -5.147   2.155   0.118  1.00  0.00    -0.288 OA
BRANCH  12  22
ATOM     22  O   UNL     1       0.325   2.600  -3.004  1.00  0.00    -0.508 OA
ATOM     23  H   UNL     1       1.075   2.039  -2.741  1.00  0.00     0.293 HD
ENDBRANCH  12  22
BRANCH  20  24
ATOM     24  C   UNL     1      -5.506  -0.509   1.336  1.00  0.00    -0.011 A 
ATOM     25  C   UNL     1      -5.938   0.257   2.428  1.00  0.00     0.013 A 
ATOM     26  C   UNL     1      -6.182  -1.707   1.045  1.00  0.00     0.013 A 
ATOM     27  C   UNL     1      -7.010  -0.168   3.217  1.00  0.00     0.047 A 
ATOM     28  C   UNL     1      -7.256  -2.132   1.833  1.00  0.00     0.047 A 
ATOM     29  C   UNL     1      -7.658  -1.358   2.915  1.00  0.00     0.115 A 
BRANCH  29  30
ATOM     30  O   UNL     1      -8.700  -1.734   3.710  1.00  0.00    -0.508 OA
ATOM     31  H   UNL     1      -9.080  -2.555   3.358  1.00  0.00     0.293 HD
ENDBRANCH  29  30
ENDBRANCH  20  24
ENDBRANCH  10  11
ENDBRANCH   3  10
TORSDOF 8
