REMARK SMILES C=C/C=C\CC1=C(C)[C@@H](OC(=O)[C@@H]2[C@@H](/C=C(\C)C(=O)OC)C2(C)C)CC1=O
REMARK SMILES IDX 11 1 12 2 10 3 9 4 6 5 7 6 26 7 25 8 27 9 8 10 5 11 4 12
REMARK SMILES IDX 3 13 2 14 1 15 13 16 14 17 22 18 23 19 24 20 15 21 16 22
REMARK SMILES IDX 17 23 18 24 19 25 20 26 21 27
REMARK H PARENT
ROOT
ATOM      1  C   UNL     1       0.278  -2.085   1.658  1.00  0.00     0.310 C 
ATOM      2  O   UNL     1       0.228  -2.811   2.639  1.00  0.00    -0.252 OA
ENDROOT
BRANCH   1   3
ATOM      3  O   UNL     1      -0.363  -0.899   1.512  1.00  0.00    -0.457 OA
BRANCH   3   4
ATOM      4  C   UNL     1      -1.179  -0.511   2.621  1.00  0.00     0.210 C 
ATOM      5  C   UNL     1      -1.790   1.798   2.753  1.00  0.00     0.002 C 
ATOM      6  C   UNL     1      -2.048   0.626   2.153  1.00  0.00    -0.026 C 
ATOM      7  C   UNL     1      -0.727   1.515   3.737  1.00  0.00     0.163 C 
ATOM      8  C   UNL     1      -0.339   0.069   3.754  1.00  0.00     0.130 C 
ATOM      9  O   UNL     1      -0.243   2.369   4.466  1.00  0.00    -0.294 OA
ATOM     10  C   UNL     1      -3.056   0.366   1.083  1.00  0.00     0.044 C 
BRANCH   5  11
ATOM     11  C   UNL     1      -2.375   3.156   2.592  1.00  0.00     0.066 C 
BRANCH  11  12
ATOM     12  C   UNL     1      -1.487   4.046   1.765  1.00  0.00    -0.022 C 
ATOM     13  C   UNL     1      -1.692   4.527   0.529  1.00  0.00    -0.005 C 
BRANCH  13  14
ATOM     14  C   UNL     1      -2.839   4.281  -0.311  1.00  0.00    -0.008 C 
ATOM     15  C   UNL     1      -2.954   4.789  -1.544  1.00  0.00     0.008 C 
ENDBRANCH  13  14
ENDBRANCH  11  12
ENDBRANCH   5  11
ENDBRANCH   3   4
ENDBRANCH   1   3
BRANCH   1  16
ATOM     16  C   UNL     1       1.109  -2.413   0.477  1.00  0.00     0.113 C 
ATOM     17  C   UNL     1       0.640  -2.105  -0.931  1.00  0.00     0.033 C 
ATOM     18  C   UNL     1       0.722  -3.549  -0.459  1.00  0.00    -0.014 C 
ATOM     19  C   UNL     1       1.837  -4.462  -0.913  1.00  0.00     0.012 C 
ATOM     20  C   UNL     1      -0.588  -4.273  -0.251  1.00  0.00     0.012 C 
BRANCH  17  21
ATOM     21  C   UNL     1       1.605  -1.575  -1.909  1.00  0.00    -0.011 C 
ATOM     22  C   UNL     1       2.083  -0.315  -1.985  1.00  0.00     0.030 C 
ATOM     23  C   UNL     1       1.684   0.798  -1.058  1.00  0.00     0.052 C 
BRANCH  22  24
ATOM     24  C   UNL     1       3.067   0.094  -3.034  1.00  0.00     0.333 C 
ATOM     25  O   UNL     1       3.502   1.232  -3.131  1.00  0.00    -0.247 OA
BRANCH  24  26
ATOM     26  O   UNL     1       3.407  -0.944  -3.841  1.00  0.00    -0.466 OA
ATOM     27  C   UNL     1       4.349  -0.604  -4.859  1.00  0.00     0.282 C 
ENDBRANCH  24  26
ENDBRANCH  22  24
ENDBRANCH  17  21
ENDBRANCH   1  16
TORSDOF 9
