REMARK SMILES Nc1nnc(SCc2ccccc2Cl)s1
REMARK SMILES IDX 6 1 5 2 2 3 3 4 15 5 4 6 1 7 7 10 8 11 9 12 13 13 10 14
REMARK SMILES IDX 12 15 11 16 14 17
REMARK H PARENT 1 8 1 9
ROOT
ATOM      1  S   UNL     1       0.627   0.248  -1.345  1.00  0.00    -0.089 SA
ENDROOT
BRANCH   1   2
ATOM      2  C   UNL     1       2.266   0.449  -0.774  1.00  0.00     0.176 A 
ATOM      3  C   UNL     1       4.575   0.863  -0.419  1.00  0.00     0.203 A 
ATOM      4  N   UNL     1       3.980   0.399   0.657  1.00  0.00    -0.120 NA
ATOM      5  S   UNL     1       3.531   1.027  -1.773  1.00  0.00    -0.069 S 
ATOM      6  N   UNL     1       2.636   0.155   0.453  1.00  0.00    -0.130 NA
BRANCH   3   7
ATOM      7  N   UNL     1       5.883   1.177  -0.494  1.00  0.00    -0.374 N 
ATOM      8  H   UNL     1       6.467   0.789   0.240  1.00  0.00     0.159 HD
ATOM      9  H   UNL     1       6.317   1.167  -1.409  1.00  0.00     0.159 HD
ENDBRANCH   3   7
ENDBRANCH   1   2
BRANCH   1  10
ATOM     10  C   UNL     1      -0.222  -0.106   0.223  1.00  0.00     0.114 C 
BRANCH  10  11
ATOM     11  C   UNL     1      -1.704  -0.309   0.014  1.00  0.00    -0.019 A 
ATOM     12  C   UNL     1      -2.186  -1.612  -0.211  1.00  0.00     0.006 A 
ATOM     13  C   UNL     1      -2.624   0.752   0.008  1.00  0.00     0.045 A 
ATOM     14  C   UNL     1      -3.546  -1.848  -0.422  1.00  0.00     0.000 A 
ATOM     15  C   UNL     1      -3.986   0.512  -0.204  1.00  0.00     0.021 A 
ATOM     16  C   UNL     1      -4.446  -0.786  -0.417  1.00  0.00     0.002 A 
ATOM     17  Cl  UNL     1      -2.134   2.391   0.255  1.00  0.00    -0.084 Cl
ENDBRANCH  10  11
ENDBRANCH   1  10
TORSDOF 4
