REMARK SMILES CC1=C(C(=O)Nc2ccccc2)C(c2ccc(O)cc2)n2nc(-c3ccc(Cl)cc3)nc2N1
REMARK SMILES IDX 1 1 2 2 3 3 13 4 21 5 22 6 23 7 31 8 32 9 33 10 4 12 5 13
REMARK SMILES IDX 6 14 7 16 8 17 12 18 9 19 11 20 10 21 14 22 15 23 20 24
REMARK SMILES IDX 16 25 19 26 17 27 18 28 24 30 25 31 30 32 26 33 29 34 27 35
REMARK SMILES IDX 28 36
REMARK H PARENT 33 11 6 15 18 29
ROOT
ATOM      1  C   UNL     1      -1.693   2.064  -2.512  1.00  0.00     0.065 C 
ATOM      2  C   UNL     1      -0.625   1.469  -1.629  1.00  0.00     0.026 C 
ATOM      3  C   UNL     1      -0.784   1.185  -0.314  1.00  0.00     0.065 C 
ATOM      4  C   UNL     1       0.352   0.659   0.549  1.00  0.00     0.179 C 
ATOM      5  N   UNL     1       1.617   0.660  -0.195  1.00  0.00    -0.219 N 
ATOM      6  N   UNL     1       2.824   0.419   0.352  1.00  0.00    -0.148 NA
ATOM      7  C   UNL     1       3.629   0.519  -0.723  1.00  0.00     0.183 A 
ATOM      8  N   UNL     1       2.969   0.836  -1.899  1.00  0.00    -0.191 NA
ATOM      9  C   UNL     1       1.719   0.935  -1.531  1.00  0.00     0.226 A 
ATOM     10  N   UNL     1       0.613   1.261  -2.229  1.00  0.00    -0.328 N 
ATOM     11  H   UNL     1       0.725   1.567  -3.192  1.00  0.00     0.169 HD
ENDROOT
BRANCH   3  12
ATOM     12  C   UNL     1      -2.044   1.437   0.423  1.00  0.00     0.255 C 
ATOM     13  O   UNL     1      -2.054   2.286   1.303  1.00  0.00    -0.269 OA
ATOM     14  N   UNL     1      -3.063   0.601   0.026  1.00  0.00    -0.322 N 
ATOM     15  H   UNL     1      -2.834  -0.108  -0.660  1.00  0.00     0.170 HD
BRANCH  14  16
ATOM     16  C   UNL     1      -4.383   0.569   0.521  1.00  0.00     0.041 A 
ATOM     17  C   UNL     1      -5.232  -0.424   0.014  1.00  0.00     0.026 A 
ATOM     18  C   UNL     1      -4.882   1.464   1.468  1.00  0.00     0.026 A 
ATOM     19  C   UNL     1      -6.556  -0.520   0.450  1.00  0.00     0.002 A 
ATOM     20  C   UNL     1      -6.207   1.368   1.905  1.00  0.00     0.002 A 
ATOM     21  C   UNL     1      -7.044   0.377   1.397  1.00  0.00     0.000 A 
ENDBRANCH  14  16
ENDBRANCH   3  12
BRANCH   4  22
ATOM     22  C   UNL     1       0.036  -0.737   1.088  1.00  0.00    -0.018 A 
ATOM     23  C   UNL     1       0.125  -1.888   0.282  1.00  0.00     0.010 A 
ATOM     24  C   UNL     1      -0.422  -0.877   2.410  1.00  0.00     0.010 A 
ATOM     25  C   UNL     1      -0.212  -3.145   0.792  1.00  0.00     0.046 A 
ATOM     26  C   UNL     1      -0.765  -2.133   2.915  1.00  0.00     0.046 A 
ATOM     27  C   UNL     1      -0.653  -3.256   2.105  1.00  0.00     0.115 A 
BRANCH  27  28
ATOM     28  O   UNL     1      -0.992  -4.462   2.641  1.00  0.00    -0.508 OA
ATOM     29  H   UNL     1      -0.801  -5.157   1.990  1.00  0.00     0.293 HD
ENDBRANCH  27  28
ENDBRANCH   4  22
BRANCH   7  30
ATOM     30  C   UNL     1       5.075   0.316  -0.676  1.00  0.00     0.021 A 
ATOM     31  C   UNL     1       5.848   0.460  -1.839  1.00  0.00     0.013 A 
ATOM     32  C   UNL     1       5.718  -0.025   0.524  1.00  0.00     0.013 A 
ATOM     33  C   UNL     1       7.233   0.267  -1.803  1.00  0.00     0.021 A 
ATOM     34  C   UNL     1       7.102  -0.219   0.561  1.00  0.00     0.021 A 
ATOM     35  C   UNL     1       7.853  -0.072  -0.603  1.00  0.00     0.041 A 
ATOM     36  Cl  UNL     1       9.556  -0.310  -0.558  1.00  0.00    -0.084 Cl
ENDBRANCH   7  30
TORSDOF 5
