REMARK SMILES Cc1ccc(Nc2nc(N)nc(CSC(=S)N3CCOCC3)n2)c(C)c1
REMARK SMILES IDX 7 1 8 2 9 3 11 4 12 5 23 6 6 7 5 9 2 10 3 11 26 12 4 13
REMARK SMILES IDX 24 14 1 15 25 16 10 17 13 20 14 21 15 22 16 23 17 24 18 25
REMARK SMILES IDX 22 26 19 27 21 28 20 29
REMARK H PARENT 6 8 10 18 10 19
ROOT
ATOM      1  C   UNL     1       1.217   0.299  -0.515  1.00  0.00     0.232 A 
ATOM      2  N   UNL     1       1.047   0.976   0.614  1.00  0.00    -0.177 NA
ATOM      3  C   UNL     1      -0.177   1.411   0.855  1.00  0.00     0.225 A 
ATOM      4  N   UNL     1      -1.225   1.214   0.074  1.00  0.00    -0.197 NA
ATOM      5  C   UNL     1      -0.970   0.523  -1.037  1.00  0.00     0.146 A 
ATOM      6  N   UNL     1       0.232   0.050  -1.375  1.00  0.00    -0.197 NA
ENDROOT
BRANCH   1   7
ATOM      7  N   UNL     1       2.452  -0.233  -0.878  1.00  0.00    -0.324 N 
ATOM      8  H   UNL     1       2.344  -0.745  -1.740  1.00  0.00     0.170 HD
BRANCH   7   9
ATOM      9  C   UNL     1       3.754  -0.122  -0.366  1.00  0.00     0.044 A 
ATOM     10  C   UNL     1       6.388   0.022   0.698  1.00  0.00    -0.051 A 
ATOM     11  C   UNL     1       5.381   0.855   1.178  1.00  0.00     0.005 A 
ATOM     12  C   UNL     1       6.081  -0.878  -0.326  1.00  0.00     0.009 A 
ATOM     13  C   UNL     1       4.084   0.774   0.659  1.00  0.00     0.026 A 
ATOM     14  C   UNL     1       4.778  -0.969  -0.853  1.00  0.00    -0.027 A 
ATOM     15  C   UNL     1       7.787   0.129   1.227  1.00  0.00     0.044 C 
ATOM     16  C   UNL     1       4.517  -1.981  -1.939  1.00  0.00     0.046 C 
ENDBRANCH   7   9
ENDBRANCH   1   7
BRANCH   3  17
ATOM     17  N   UNL     1      -0.387   2.094   2.038  1.00  0.00    -0.368 N 
ATOM     18  H   UNL     1       0.327   1.833   2.705  1.00  0.00     0.159 HD
ATOM     19  H   UNL     1      -1.346   1.981   2.334  1.00  0.00     0.159 HD
ENDBRANCH   3  17
BRANCH   5  20
ATOM     20  C   UNL     1      -2.122   0.256  -1.971  1.00  0.00     0.155 C 
BRANCH  20  21
ATOM     21  S   UNL     1      -2.837  -1.410  -1.821  1.00  0.00    -0.089 SA
BRANCH  21  22
ATOM     22  C   UNL     1      -3.430  -1.331  -0.161  1.00  0.00     0.136 C 
ATOM     23  S   UNL     1      -2.553  -2.136   1.031  1.00  0.00    -0.053 S 
ATOM     24  N   UNL     1      -4.635  -0.648   0.050  1.00  0.00    -0.353 N 
ATOM     25  C   UNL     1      -5.028  -0.162   1.389  1.00  0.00     0.146 C 
ATOM     26  C   UNL     1      -5.495  -0.104  -1.021  1.00  0.00     0.146 C 
ATOM     27  C   UNL     1      -6.534  -0.303   1.628  1.00  0.00     0.181 C 
ATOM     28  C   UNL     1      -6.983  -0.241  -0.678  1.00  0.00     0.181 C 
ATOM     29  O   UNL     1      -7.281   0.350   0.593  1.00  0.00    -0.378 OA
ENDBRANCH  21  22
ENDBRANCH  20  21
ENDBRANCH   5  20
TORSDOF 6
