REMARK SMILES COC1OC(CO)C(O)C(O)C1O
REMARK SMILES IDX 3 1 4 2 5 3 8 4 10 5 12 6 2 7 1 8 13 9 6 11 7 12 11 14 9 16
REMARK H PARENT 13 10 7 13 11 15 9 17
ROOT
ATOM      1  C   UNL     1      -1.423  -0.063  -0.248  1.00  0.00     0.281 C 
ATOM      2  O   UNL     1      -0.421   0.901  -0.594  1.00  0.00    -0.341 OA
ATOM      3  C   UNL     1       0.720   0.858   0.277  1.00  0.00     0.178 C 
ATOM      4  C   UNL     1       1.496  -0.461   0.064  1.00  0.00     0.177 C 
ATOM      5  C   UNL     1       0.588  -1.547  -0.530  1.00  0.00     0.179 C 
ATOM      6  C   UNL     1      -0.824  -1.462   0.040  1.00  0.00     0.202 C 
ENDROOT
BRANCH   1   7
ATOM      7  O   UNL     1      -2.153   0.363   0.909  1.00  0.00    -0.353 OA
ATOM      8  C   UNL     1      -2.976   1.488   0.627  1.00  0.00     0.198 C 
ENDBRANCH   1   7
BRANCH   6   9
ATOM      9  O   UNL     1      -1.635  -2.502  -0.532  1.00  0.00    -0.385 OA
ATOM     10  H   UNL     1      -1.050  -3.273  -0.664  1.00  0.00     0.211 HD
ENDBRANCH   6   9
BRANCH   3  11
ATOM     11  C   UNL     1       1.558   2.130   0.069  1.00  0.00     0.191 C 
BRANCH  11  12
ATOM     12  O   UNL     1       2.107   2.228  -1.243  1.00  0.00    -0.394 OA
ATOM     13  H   UNL     1       2.520   1.357  -1.423  1.00  0.00     0.210 HD
ENDBRANCH  11  12
ENDBRANCH   3  11
BRANCH   5  14
ATOM     14  O   UNL     1       1.155  -2.847  -0.280  1.00  0.00    -0.387 OA
ATOM     15  H   UNL     1       1.153  -3.004   0.682  1.00  0.00     0.211 HD
ENDBRANCH   5  14
BRANCH   4  16
ATOM     16  O   UNL     1       2.633  -0.313  -0.803  1.00  0.00    -0.387 OA
ATOM     17  H   UNL     1       2.939  -1.219  -1.015  1.00  0.00     0.211 HD
ENDBRANCH   4  16
TORSDOF 6
