REMARK SMILES CC(=O)Nc1ccc(NC(=O)CSc2nnc3c4cc(Br)ccc4n(C)c3n2)cc1
REMARK SMILES IDX 9 1 10 2 11 3 8 5 5 6 6 7 30 8 7 9 29 10 4 11 2 12 3 13 1 14
REMARK SMILES IDX 12 16 13 17 14 18 15 19 28 20 16 21 27 22 17 23 25 24 18 25
REMARK SMILES IDX 24 26 19 27 23 28 20 29 22 30 26 31 21 32
REMARK H PARENT 9 4 4 15
ROOT
ATOM      1  N   UNL     1       1.341  -2.621   0.313  1.00  0.00    -0.325 N 
ATOM      2  C   UNL     1       0.218  -3.124   0.950  1.00  0.00     0.234 C 
ATOM      3  O   UNL     1      -0.222  -2.749   2.035  1.00  0.00    -0.274 OA
ATOM      4  H   UNL     1       1.565  -3.045  -0.581  1.00  0.00     0.169 HD
ENDROOT
BRANCH   1   5
ATOM      5  C   UNL     1       2.152  -1.541   0.711  1.00  0.00     0.041 A 
ATOM      6  C   UNL     1       3.861   0.618   1.354  1.00  0.00     0.041 A 
ATOM      7  C   UNL     1       4.043  -0.110   0.174  1.00  0.00     0.028 A 
ATOM      8  C   UNL     1       2.820   0.254   2.207  1.00  0.00     0.028 A 
ATOM      9  C   UNL     1       3.197  -1.179  -0.145  1.00  0.00     0.028 A 
ATOM     10  C   UNL     1       1.973  -0.818   1.888  1.00  0.00     0.028 A 
BRANCH   6  11
ATOM     11  N   UNL     1       4.752   1.682   1.601  1.00  0.00    -0.326 N 
ATOM     12  C   UNL     1       4.765   2.534   2.690  1.00  0.00     0.221 C 
ATOM     13  O   UNL     1       4.012   2.511   3.657  1.00  0.00    -0.275 OA
ATOM     14  C   UNL     1       5.877   3.550   2.605  1.00  0.00     0.114 C 
ATOM     15  H   UNL     1       5.463   1.835   0.897  1.00  0.00     0.169 HD
ENDBRANCH   6  11
ENDBRANCH   1   5
BRANCH   2  16
ATOM     16  C   UNL     1      -0.433  -4.301   0.229  1.00  0.00     0.178 C 
BRANCH  16  17
ATOM     17  S   UNL     1      -0.394  -4.168  -1.590  1.00  0.00    -0.074 SA
BRANCH  17  18
ATOM     18  C   UNL     1      -1.416  -2.727  -1.836  1.00  0.00     0.211 A 
ATOM     19  N   UNL     1      -1.567  -2.315  -3.123  1.00  0.00    -0.122 NA
ATOM     20  N   UNL     1      -1.926  -2.123  -0.749  1.00  0.00    -0.201 NA
ATOM     21  N   UNL     1      -2.269  -1.218  -3.417  1.00  0.00    -0.144 NA
ATOM     22  C   UNL     1      -2.604  -1.010  -1.079  1.00  0.00     0.164 A 
ATOM     23  C   UNL     1      -2.794  -0.541  -2.366  1.00  0.00     0.138 A 
ATOM     24  N   UNL     1      -3.214  -0.134  -0.221  1.00  0.00    -0.327 N 
ATOM     25  C   UNL     1      -3.559   0.651  -2.294  1.00  0.00     0.031 A 
ATOM     26  C   UNL     1      -3.811   0.892  -0.935  1.00  0.00     0.052 A 
ATOM     27  C   UNL     1      -4.057   1.554  -3.255  1.00  0.00     0.028 A 
ATOM     28  C   UNL     1      -4.544   2.009  -0.503  1.00  0.00     0.028 A 
ATOM     29  C   UNL     1      -4.789   2.664  -2.826  1.00  0.00     0.018 A 
ATOM     30  C   UNL     1      -5.029   2.891  -1.474  1.00  0.00     0.018 A 
ATOM     31  C   UNL     1      -3.211  -0.253   1.220  1.00  0.00     0.152 C 
ATOM     32  Br  UNL     1      -5.462   3.882  -4.109  1.00  0.00    -0.051 Br
ENDBRANCH  17  18
ENDBRANCH  16  17
ENDBRANCH   2  16
TORSDOF 5
