REMARK SMILES CC1(C)OC(=O)C=C2C1=CC1OC(=O)C34COC5(C)C(=O)C6(C)CC(C2(C)OC63C5=O)C14C
REMARK SMILES IDX 11 1 12 2 13 3 14 4 15 5 16 6 17 7 18 8 19 9 20 10 21 11
REMARK SMILES IDX 22 12 23 13 24 14 25 15 26 16 27 17 28 18 29 19 30 20 31 21
REMARK SMILES IDX 32 22 33 23 10 25 2 26 4 27 9 28 5 29 8 30 6 31 7 32 1 33
REMARK SMILES IDX 3 34
REMARK H PARENT
REMARK Flexibility Score:    7.900
ROOT
ATOM      1  C   UNL     1       0.855   0.595   1.615  1.00  0.00     0.207 C 
ATOM      2  O   UNL     1       0.361   1.208   2.766  1.00  0.00    -0.457 OA
ATOM      3  C   UNL     1      -0.923   1.488   2.336  1.00  0.00     0.319 C 
ATOM      4  O   UNL     1      -1.586   2.425   2.739  1.00  0.00    -0.251 OA
ATOM      5  C   UNL     1      -1.395   0.374   1.370  1.00  0.00     0.138 C 
ATOM      6  C   UNL     1      -2.621  -0.206   2.126  1.00  0.00     0.185 C 
ATOM      7  O   UNL     1      -3.830   0.521   1.848  1.00  0.00    -0.358 OA
ATOM      8  C   UNL     1      -4.047   0.771   0.460  1.00  0.00     0.185 C 
ATOM      9  C   UNL     1      -5.432   1.308   0.200  1.00  0.00     0.060 C 
ATOM     10  C   UNL     1      -3.726  -0.520  -0.302  1.00  0.00     0.181 C 
ATOM     11  O   UNL     1      -4.440  -1.508  -0.390  1.00  0.00    -0.295 OA
ATOM     12  C   UNL     1      -2.330  -0.419  -0.911  1.00  0.00     0.068 C 
ATOM     13  C   UNL     1      -2.627  -0.135  -2.401  1.00  0.00     0.023 C 
ATOM     14  C   UNL     1      -1.394  -1.621  -0.644  1.00  0.00     0.026 C 
ATOM     15  C   UNL     1       0.013  -1.099  -0.162  1.00  0.00     0.038 C 
ATOM     16  C   UNL     1       0.490   0.056  -1.105  1.00  0.00     0.096 CG0
ATOM     17  C   UNL     1       0.504  -0.408  -2.590  1.00  0.00     0.048 C 
ATOM     18  O   UNL     1      -0.485   1.153  -0.883  1.00  0.00    -0.353 OA
ATOM     19  C   UNL     1      -1.683   0.795  -0.142  1.00  0.00     0.162 C 
ATOM     20  C   UNL     1      -2.918   1.684  -0.035  1.00  0.00     0.206 C 
ATOM     21  O   UNL     1      -2.987   2.862  -0.339  1.00  0.00    -0.293 OA
ATOM     22  C   UNL     1      -0.149  -0.518   1.294  1.00  0.00     0.036 C 
ATOM     23  C   UNL     1      -0.089  -1.651   2.337  1.00  0.00     0.017 C 
ATOM     24  G   UNL     1       1.972   0.572  -0.872  1.00  0.00     0.000 G0
ENDROOT
BRANCH   1  25
ATOM     25  C   UNL     1       2.261   0.153   1.527  1.00  0.00     0.026 C 
ATOM     26  C   UNL     1       4.266  -0.058  -0.047  1.00  0.00     0.132 C 
ATOM     27  O   UNL     1       4.762   1.106  -0.757  1.00  0.00    -0.452 OA
ATOM     28  C   UNL     1       2.797   0.157   0.287  1.00  0.00     0.001 C 
ATOM     29  C   UNL     1       3.994   1.796  -1.628  1.00  0.00     0.332 C 
ATOM     30  C   UNL     1       1.972   0.572  -0.872  1.00  0.00    -0.002 CG0
ATOM     31  O   UNL     1       4.440   2.697  -2.326  1.00  0.00    -0.247 OA
ATOM     32  C   UNL     1       2.583   1.394  -1.747  1.00  0.00     0.100 C 
ATOM     33  C   UNL     1       5.179  -0.190   1.183  1.00  0.00     0.062 C 
ATOM     34  C   UNL     1       4.471  -1.299  -0.933  1.00  0.00     0.062 C 
ATOM     35  G   UNL     1       0.490   0.056  -1.105  1.00  0.00     0.000 G0
ENDBRANCH   1  25
TORSDOF 0
