REMARK SMILES COc1ccc(-n2nc3cc(C)c(NC(=O)c4ccc(C)cc4C)cc3n2)cc1Cl
REMARK SMILES IDX 7 1 8 2 9 3 10 4 11 5 12 6 13 7 25 8 26 9 27 10 6 11 3 12
REMARK SMILES IDX 4 13 29 14 5 15 28 16 30 17 2 18 1 19 14 20 15 21 16 22
REMARK SMILES IDX 17 24 18 25 23 26 19 27 22 28 20 29 24 30 21 31
REMARK H PARENT 14 23
ROOT
ATOM      1  N   UNL     1       3.541  -0.497  -0.202  1.00  0.00    -0.150 N 
ATOM      2  N   UNL     1       3.161  -1.770   0.054  1.00  0.00    -0.148 NA
ATOM      3  C   UNL     1       1.825  -1.687   0.073  1.00  0.00     0.114 A 
ATOM      4  C   UNL     1       0.878  -2.699   0.292  1.00  0.00     0.038 A 
ATOM      5  C   UNL     1      -0.479  -2.283   0.246  1.00  0.00    -0.025 A 
ATOM      6  C   UNL     1      -1.518  -3.358   0.481  1.00  0.00     0.047 C 
ATOM      7  C   UNL     1      -0.864  -0.913  -0.006  1.00  0.00     0.046 A 
ATOM      8  C   UNL     1       0.095   0.100  -0.229  1.00  0.00     0.059 A 
ATOM      9  C   UNL     1       1.440  -0.310  -0.184  1.00  0.00     0.115 A 
ATOM     10  N   UNL     1       2.555   0.415  -0.355  1.00  0.00    -0.148 NA
ENDROOT
BRANCH   1  11
ATOM     11  C   UNL     1       4.911  -0.135  -0.307  1.00  0.00     0.087 A 
ATOM     12  C   UNL     1       7.626   0.592  -0.516  1.00  0.00     0.137 A 
ATOM     13  C   UNL     1       6.621   1.551  -0.676  1.00  0.00     0.050 A 
ATOM     14  C   UNL     1       7.255  -0.738  -0.249  1.00  0.00     0.085 A 
ATOM     15  C   UNL     1       5.271   1.192  -0.573  1.00  0.00     0.034 A 
ATOM     16  C   UNL     1       5.909  -1.103  -0.144  1.00  0.00     0.054 A 
ATOM     17  Cl  UNL     1       8.445  -1.977  -0.038  1.00  0.00    -0.080 Cl
BRANCH  12  18
ATOM     18  O   UNL     1       8.969   0.854  -0.600  1.00  0.00    -0.495 OA
ATOM     19  C   UNL     1       9.366   2.192  -0.868  1.00  0.00     0.278 C 
ENDBRANCH  12  18
ENDBRANCH   1  11
BRANCH   7  20
ATOM     20  N   UNL     1      -2.252  -0.618  -0.032  1.00  0.00    -0.322 N 
ATOM     21  C   UNL     1      -2.857   0.617  -0.191  1.00  0.00     0.255 C 
ATOM     22  O   UNL     1      -2.314   1.707  -0.301  1.00  0.00    -0.269 OA
ATOM     23  H   UNL     1      -2.884  -1.390   0.131  1.00  0.00     0.170 HD
BRANCH  21  24
ATOM     24  C   UNL     1      -4.343   0.551  -0.201  1.00  0.00     0.043 A 
ATOM     25  C   UNL     1      -4.967  -0.298  -1.128  1.00  0.00     0.014 A 
ATOM     26  C   UNL     1      -5.111   1.328   0.684  1.00  0.00    -0.038 A 
ATOM     27  C   UNL     1      -6.359  -0.387  -1.171  1.00  0.00     0.004 A 
ATOM     28  C   UNL     1      -6.511   1.232   0.619  1.00  0.00     0.007 A 
ATOM     29  C   UNL     1      -7.140   0.367  -0.289  1.00  0.00    -0.051 A 
ATOM     30  C   UNL     1      -4.481   2.274   1.667  1.00  0.00     0.045 C 
ATOM     31  C   UNL     1      -8.638   0.307  -0.363  1.00  0.00     0.044 C 
ENDBRANCH  21  24
ENDBRANCH   7  20
TORSDOF 4
