REMARK SMILES COc1c2c(c(C)c3c1C(=O)OC3)OC1(C)CC(O)C34OC(OC)(OC3(C)C)C(O)CC4(C)C1C2
REMARK SMILES IDX 3 1 4 2 5 3 6 4 7 5 8 6 9 7 10 8 11 9 12 10 13 11 14 12
REMARK SMILES IDX 15 13 16 14 17 15 18 16 20 17 21 18 22 19 25 20 26 21 27 22
REMARK SMILES IDX 28 23 29 24 31 25 32 26 33 27 34 28 35 29 2 30 1 31 19 32
REMARK SMILES IDX 30 34 23 36 24 37
REMARK H PARENT 19 33 30 35
ROOT
ATOM      1  C   UNL     1      -3.474  -0.502   1.661  1.00  0.00     0.140 A 
ATOM      2  C   UNL     1      -2.477  -0.213   0.713  1.00  0.00     0.038 A 
ATOM      3  C   UNL     1      -2.753   0.706  -0.316  1.00  0.00     0.130 A 
ATOM      4  C   UNL     1      -3.984   1.391  -0.381  1.00  0.00    -0.001 A 
ATOM      5  C   UNL     1      -4.241   2.399  -1.464  1.00  0.00     0.049 C 
ATOM      6  C   UNL     1      -4.927   1.120   0.606  1.00  0.00     0.014 A 
ATOM      7  C   UNL     1      -4.672   0.193   1.599  1.00  0.00     0.109 A 
ATOM      8  C   UNL     1      -5.831   0.135   2.488  1.00  0.00     0.342 C 
ATOM      9  O   UNL     1      -5.987  -0.569   3.465  1.00  0.00    -0.246 OA
ATOM     10  O   UNL     1      -6.746   1.025   1.999  1.00  0.00    -0.457 OA
ATOM     11  C   UNL     1      -6.271   1.697   0.819  1.00  0.00     0.270 C 
ATOM     12  O   UNL     1      -1.845   1.017  -1.294  1.00  0.00    -0.486 OA
ATOM     13  C   UNL     1      -0.701   0.143  -1.454  1.00  0.00     0.113 C 
ATOM     14  C   UNL     1      -1.188  -1.059  -2.285  1.00  0.00     0.057 C 
ATOM     15  C   UNL     1       0.291   0.967  -2.286  1.00  0.00     0.083 C 
ATOM     16  C   UNL     1       1.695   0.365  -2.385  1.00  0.00     0.154 C 
ATOM     17  C   UNL     1       2.334   0.128  -0.976  1.00  0.00     0.134 C 
ATOM     18  O   UNL     1       2.332   1.377  -0.243  1.00  0.00    -0.312 OA
ATOM     19  C   UNL     1       3.240   1.127   0.856  1.00  0.00     0.311 C 
ATOM     20  O   UNL     1       4.242   0.194   0.400  1.00  0.00    -0.316 OA
ATOM     21  C   UNL     1       3.875  -0.136  -0.956  1.00  0.00     0.101 C 
ATOM     22  C   UNL     1       4.324  -1.564  -1.248  1.00  0.00     0.045 C 
ATOM     23  C   UNL     1       4.746   0.806  -1.814  1.00  0.00     0.045 C 
ATOM     24  C   UNL     1       2.378   0.414   1.947  1.00  0.00     0.205 C 
ATOM     25  C   UNL     1       1.908  -0.930   1.366  1.00  0.00     0.050 C 
ATOM     26  C   UNL     1       1.372  -0.832  -0.102  1.00  0.00     0.012 C 
ATOM     27  C   UNL     1       1.314  -2.279  -0.653  1.00  0.00     0.015 C 
ATOM     28  C   UNL     1      -0.080  -0.171  -0.071  1.00  0.00     0.047 C 
ATOM     29  C   UNL     1      -1.130  -0.884   0.802  1.00  0.00     0.051 C 
ENDROOT
BRANCH   1  30
ATOM     30  O   UNL     1      -3.201  -1.384   2.669  1.00  0.00    -0.495 OA
ATOM     31  C   UNL     1      -3.772  -2.665   2.396  1.00  0.00     0.278 C 
ENDBRANCH   1  30
BRANCH  16  32
ATOM     32  O   UNL     1       2.462   1.250  -3.202  1.00  0.00    -0.390 OA
ATOM     33  H   UNL     1       1.930   1.516  -3.971  1.00  0.00     0.211 HD
ENDBRANCH  16  32
BRANCH  24  34
ATOM     34  O   UNL     1       3.074   0.124   3.168  1.00  0.00    -0.385 OA
ATOM     35  H   UNL     1       2.426  -0.250   3.789  1.00  0.00     0.211 HD
ENDBRANCH  24  34
BRANCH  19  36
ATOM     36  O   UNL     1       3.791   2.379   1.231  1.00  0.00    -0.329 OA
ATOM     37  C   UNL     1       4.746   2.315   2.275  1.00  0.00     0.201 C 
ENDBRANCH  19  36
TORSDOF 4
