REMARK SMILES C=C1C2(C)CC3C4(C)OC(C5OC56C4=CC(=O)OC6(C)C)C3(C)C13C(=O)OC(C)C3(O)C2=O
REMARK SMILES IDX 1 1 2 2 3 3 4 4 5 5 6 6 7 7 8 8 9 9 10 10 11 11 12 12 13 13
REMARK SMILES IDX 14 14 15 15 16 16 17 17 18 18 19 19 20 20 21 21 22 22 23 23
REMARK SMILES IDX 24 24 25 25 26 26 27 27 28 28 29 29 30 30 32 31 33 32 31 33
REMARK H PARENT 31 34
ROOT
ATOM      1  C   UNL     1      -3.374  -0.758  -2.702  1.00  0.00     0.010 C 
ATOM      2  C   UNL     1      -2.781  -0.395  -1.556  1.00  0.00    -0.043 C 
ATOM      3  C   UNL     1      -2.893   0.941  -0.806  1.00  0.00     0.052 C 
ATOM      4  C   UNL     1      -4.113   1.792  -1.143  1.00  0.00     0.024 C 
ATOM      5  C   UNL     1      -1.582   1.694  -1.013  1.00  0.00     0.026 C 
ATOM      6  C   UNL     1      -0.295   0.874  -0.767  1.00  0.00     0.037 C 
ATOM      7  C   UNL     1       0.483   1.125   0.568  1.00  0.00     0.094 C 
ATOM      8  C   UNL     1      -0.072   2.157   1.551  1.00  0.00     0.048 C 
ATOM      9  O   UNL     1       0.393  -0.156   1.234  1.00  0.00    -0.364 OA
ATOM     10  C   UNL     1       0.581  -1.147   0.211  1.00  0.00     0.159 C 
ATOM     11  C   UNL     1       2.058  -1.167  -0.077  1.00  0.00     0.190 C 
ATOM     12  O   UNL     1       2.572  -0.529  -1.245  1.00  0.00    -0.354 OA
ATOM     13  C   UNL     1       2.790   0.167  -0.012  1.00  0.00     0.161 C 
ATOM     14  C   UNL     1       1.981   1.364   0.306  1.00  0.00     0.007 C 
ATOM     15  C   UNL     1       2.585   2.562   0.377  1.00  0.00     0.099 C 
ATOM     16  C   UNL     1       4.033   2.701   0.159  1.00  0.00     0.331 C 
ATOM     17  O   UNL     1       4.527   3.816   0.043  1.00  0.00    -0.247 OA
ATOM     18  O   UNL     1       4.777   1.573   0.097  1.00  0.00    -0.453 OA
ATOM     19  C   UNL     1       4.245   0.255   0.423  1.00  0.00     0.142 C 
ATOM     20  C   UNL     1       5.170  -0.737  -0.295  1.00  0.00     0.060 C 
ATOM     21  C   UNL     1       4.378   0.053   1.940  1.00  0.00     0.060 C 
ATOM     22  C   UNL     1      -0.430  -0.704  -0.865  1.00  0.00     0.026 C 
ATOM     23  C   UNL     1       0.019  -1.196  -2.277  1.00  0.00     0.016 C 
ATOM     24  C   UNL     1      -1.940  -1.261  -0.637  1.00  0.00     0.137 C 
ATOM     25  C   UNL     1      -1.891  -2.781  -0.518  1.00  0.00     0.320 C 
ATOM     26  O   UNL     1      -1.800  -3.577  -1.438  1.00  0.00    -0.251 OA
ATOM     27  O   UNL     1      -1.826  -3.132   0.821  1.00  0.00    -0.458 OA
ATOM     28  C   UNL     1      -2.372  -2.067   1.650  1.00  0.00     0.214 C 
ATOM     29  C   UNL     1      -1.442  -1.664   2.775  1.00  0.00     0.057 C 
ATOM     30  C   UNL     1      -2.823  -1.078   0.618  1.00  0.00     0.181 C 
ATOM     31  C   UNL     1      -2.984   0.411   0.642  1.00  0.00     0.179 C 
ATOM     32  O   UNL     1      -3.223   1.088   1.630  1.00  0.00    -0.295 OA
ENDROOT
BRANCH  30  33
ATOM     33  O   UNL     1      -4.219  -1.528   0.389  1.00  0.00    -0.377 OA
ATOM     34  H   UNL     1      -4.591  -1.171  -0.435  1.00  0.00     0.212 HD
ENDBRANCH  30  33
TORSDOF 1
