REMARK SMILES CC(O)C12OC3=CC4=C(CC(=O)OC4(C)C)C(CO)=C4CC5(C)C(=O)OC(O1)C5C2C34C
REMARK SMILES IDX 4 1 5 2 6 3 7 4 17 5 20 6 21 7 22 8 23 9 24 10 25 11 26 12
REMARK SMILES IDX 27 13 28 14 29 15 30 16 31 17 32 18 2 20 1 21 3 22 8 24 9 25
REMARK SMILES IDX 14 26 10 27 13 28 11 29 12 30 15 31 16 32 18 34 19 35
REMARK H PARENT 3 23 19 36
REMARK Flexibility Score:    6.900
ROOT
ATOM      1  C   UNL     1      -2.081   1.687   0.402  1.00  0.00     0.243 C 
ATOM      2  O   UNL     1      -0.796   2.180   0.841  1.00  0.00    -0.462 OA
ATOM      3  C   UNL     1       0.170   1.253   0.314  1.00  0.00     0.111 C 
ATOM      4  C   UNL     1       1.450   1.365   0.680  1.00  0.00     0.051 C 
ATOM      5  C   UNL     1       1.184  -1.691   0.426  1.00  0.00    -0.018 CG0
ATOM      6  C   UNL     1      -0.065  -1.350   0.006  1.00  0.00    -0.049 C 
ATOM      7  C   UNL     1      -1.261  -2.369  -0.034  1.00  0.00     0.051 C 
ATOM      8  C   UNL     1      -2.731  -1.908   0.282  1.00  0.00     0.078 C 
ATOM      9  C   UNL     1      -3.747  -2.814  -0.424  1.00  0.00     0.024 C 
ATOM     10  C   UNL     1      -3.078  -1.924   1.763  1.00  0.00     0.314 C 
ATOM     11  O   UNL     1      -2.927  -2.880   2.509  1.00  0.00    -0.252 OA
ATOM     12  O   UNL     1      -3.668  -0.748   2.151  1.00  0.00    -0.435 OA
ATOM     13  C   UNL     1      -3.772   0.169   1.057  1.00  0.00     0.319 C 
ATOM     14  O   UNL     1      -3.159   1.476   1.376  1.00  0.00    -0.297 OA
ATOM     15  C   UNL     1      -2.962  -0.460  -0.063  1.00  0.00     0.087 C 
ATOM     16  C   UNL     1      -1.718   0.272   0.228  1.00  0.00     0.093 C 
ATOM     17  C   UNL     1      -0.426   0.071  -0.460  1.00  0.00     0.056 C 
ATOM     18  C   UNL     1      -0.359   0.178  -1.977  1.00  0.00     0.025 C 
ATOM     19  G   UNL     1       2.387  -0.865   0.136  1.00  0.00     0.000 G0
ENDROOT
BRANCH   1  20
ATOM     20  C   UNL     1      -2.690   2.568  -0.724  1.00  0.00     0.184 C 
ATOM     21  C   UNL     1      -2.751   4.034  -0.288  1.00  0.00     0.045 C 
BRANCH  20  22
ATOM     22  O   UNL     1      -1.996   2.491  -1.962  1.00  0.00    -0.387 OA
ATOM     23  H   UNL     1      -2.294   3.226  -2.526  1.00  0.00     0.211 HD
ENDBRANCH  20  22
ENDBRANCH   1  20
BRANCH   4  24
ATOM     24  C   UNL     1       2.507   0.479   0.229  1.00  0.00     0.002 C 
ATOM     25  C   UNL     1       2.387  -0.865   0.136  1.00  0.00    -0.024 CG0
ATOM     26  C   UNL     1       3.836   1.158  -0.122  1.00  0.00     0.132 C 
ATOM     27  C   UNL     1       3.587  -1.651  -0.345  1.00  0.00     0.159 C 
ATOM     28  O   UNL     1       4.542   0.439  -1.165  1.00  0.00    -0.454 OA
ATOM     29  C   UNL     1       4.506  -0.900  -1.273  1.00  0.00     0.311 C 
ATOM     30  O   UNL     1       5.228  -1.489  -2.075  1.00  0.00    -0.252 OA
ATOM     31  C   UNL     1       3.676   2.569  -0.722  1.00  0.00     0.062 C 
ATOM     32  C   UNL     1       4.756   1.234   1.105  1.00  0.00     0.062 C 
ATOM     33  G   UNL     1       1.184  -1.691   0.426  1.00  0.00     0.000 G0
ENDBRANCH   4  24
BRANCH   5  34
ATOM     34  C   UNL     1       1.442  -3.013   1.132  1.00  0.00     0.192 C 
BRANCH  34  35
ATOM     35  O   UNL     1       0.721  -3.015   2.357  1.00  0.00    -0.392 OA
ATOM     36  H   UNL     1       0.730  -3.923   2.702  1.00  0.00     0.211 HD
ENDBRANCH  34  35
ENDBRANCH   5  34
TORSDOF 4
