REMARK SMILES CCn1c(SCC(=O)Nc2ccc(Br)cc2)nc2sc3c(c2c1=O)CCN(C)C3
REMARK SMILES IDX 5 1 4 2 3 3 23 4 17 5 22 6 24 7 18 8 21 9 19 10 20 11 25 12
REMARK SMILES IDX 29 13 26 14 27 15 28 16 2 17 1 18 6 19 7 20 8 21 9 22 10 24
REMARK SMILES IDX 11 25 16 26 12 27 15 28 13 29 14 30
REMARK H PARENT 9 23
ROOT
ATOM      1  S   UNL     1       1.889   0.199   1.095  1.00  0.00    -0.078 SA
ENDROOT
BRANCH   1   2
ATOM      2  C   UNL     1       0.143   0.249   0.912  1.00  0.00     0.172 C 
ATOM      3  N   UNL     1      -0.592   1.039   1.798  1.00  0.00    -0.287 N 
ATOM      4  C   UNL     1      -1.986   1.139   1.672  1.00  0.00     0.263 C 
ATOM      5  N   UNL     1      -0.357  -0.476  -0.039  1.00  0.00    -0.213 NA
ATOM      6  C   UNL     1      -2.559   0.327   0.617  1.00  0.00     0.080 A 
ATOM      7  O   UNL     1      -2.685   1.855   2.385  1.00  0.00    -0.268 OA
ATOM      8  C   UNL     1      -1.702  -0.418  -0.158  1.00  0.00     0.132 A 
ATOM      9  C   UNL     1      -3.922   0.168   0.219  1.00  0.00    -0.016 A 
ATOM     10  S   UNL     1      -2.529  -1.307  -1.359  1.00  0.00    -0.119 S 
ATOM     11  C   UNL     1      -4.033  -0.691  -0.859  1.00  0.00     0.025 A 
ATOM     12  C   UNL     1      -5.142   0.822   0.794  1.00  0.00     0.053 C 
ATOM     13  C   UNL     1      -5.327  -1.082  -1.512  1.00  0.00     0.131 C 
ATOM     14  C   UNL     1      -6.435   0.132   0.296  1.00  0.00     0.089 C 
ATOM     15  N   UNL     1      -6.404  -0.126  -1.161  1.00  0.00    -0.301 NA
ATOM     16  C   UNL     1      -7.694  -0.626  -1.628  1.00  0.00     0.105 C 
BRANCH   3  17
ATOM     17  C   UNL     1       0.010   1.865   2.850  1.00  0.00     0.125 C 
ATOM     18  C   UNL     1       0.360   3.259   2.345  1.00  0.00     0.028 C 
ENDBRANCH   3  17
ENDBRANCH   1   2
BRANCH   1  19
ATOM     19  C   UNL     1       2.364   0.128  -0.659  1.00  0.00     0.178 C 
BRANCH  19  20
ATOM     20  C   UNL     1       3.874   0.234  -0.788  1.00  0.00     0.234 C 
ATOM     21  O   UNL     1       4.394   1.230  -1.283  1.00  0.00    -0.274 OA
ATOM     22  N   UNL     1       4.533  -0.892  -0.317  1.00  0.00    -0.325 N 
ATOM     23  H   UNL     1       3.952  -1.589   0.134  1.00  0.00     0.169 HD
BRANCH  22  24
ATOM     24  C   UNL     1       5.919  -1.143  -0.318  1.00  0.00     0.041 A 
ATOM     25  C   UNL     1       6.351  -2.337   0.277  1.00  0.00     0.027 A 
ATOM     26  C   UNL     1       6.869  -0.285  -0.876  1.00  0.00     0.027 A 
ATOM     27  C   UNL     1       7.710  -2.665   0.316  1.00  0.00     0.018 A 
ATOM     28  C   UNL     1       8.230  -0.611  -0.838  1.00  0.00     0.018 A 
ATOM     29  C   UNL     1       8.644  -1.798  -0.242  1.00  0.00     0.018 A 
ATOM     30  Br  UNL     1      10.482  -2.236  -0.192  1.00  0.00    -0.051 Br
ENDBRANCH  22  24
ENDBRANCH  19  20
ENDBRANCH   1  19
TORSDOF 5
