REMARK SMILES Cc1ccc(-c2cc(C(F)(F)F)n3nc(C(=O)Nc4sc5c(c4C#N)CCC(C)C5)cc3n2)cc1
REMARK SMILES IDX 6 1 7 2 8 3 13 4 14 5 15 6 31 7 32 8 33 9 5 10 2 11 3 12
REMARK SMILES IDX 35 13 4 14 34 15 1 16 9 17 10 18 11 19 12 20 16 21 17 22
REMARK SMILES IDX 18 23 19 25 20 26 23 27 21 28 22 29 24 30 30 31 26 32 25 33
REMARK SMILES IDX 28 34 27 35 29 36
REMARK H PARENT 18 24
ROOT
ATOM      1  C   UNL     1       4.578   0.901   0.005  1.00  0.00     0.075 C 
ATOM      2  C   UNL     1       4.515   2.357   0.354  1.00  0.00     0.062 C 
ATOM      3  C   UNL     1       3.289   2.866   0.592  1.00  0.00     0.150 C 
ATOM      4  N   UNL     1       2.174   2.042   0.499  1.00  0.00    -0.209 N 
ATOM      5  N   UNL     1       0.875   2.354   0.698  1.00  0.00    -0.161 NA
ATOM      6  C   UNL     1       0.179   1.223   0.488  1.00  0.00     0.153 A 
ATOM      7  C   UNL     1       1.054   0.163   0.143  1.00  0.00     0.085 A 
ATOM      8  C   UNL     1       2.318   0.699   0.150  1.00  0.00     0.157 A 
ATOM      9  N   UNL     1       3.532   0.131  -0.105  1.00  0.00    -0.228 NA
ENDROOT
BRANCH   1  10
ATOM     10  C   UNL     1       5.931   0.330  -0.252  1.00  0.00     0.000 A 
ATOM     11  C   UNL     1       8.448  -0.801  -0.797  1.00  0.00    -0.051 A 
ATOM     12  C   UNL     1       8.311   0.185   0.187  1.00  0.00     0.004 A 
ATOM     13  C   UNL     1       7.310  -1.241  -1.484  1.00  0.00     0.004 A 
ATOM     14  C   UNL     1       7.061   0.750   0.459  1.00  0.00     0.010 A 
ATOM     15  C   UNL     1       6.060  -0.679  -1.214  1.00  0.00     0.010 A 
ATOM     16  C   UNL     1       9.784  -1.430  -1.062  1.00  0.00     0.044 C 
ENDBRANCH   1  10
BRANCH   3  17
ATOM     17  C   UNL     1       3.041   4.283   0.941  1.00  0.00     0.433 C 
ATOM     18  F   UNL     1       2.265   4.923   0.032  1.00  0.00    -0.165 F 
ATOM     19  F   UNL     1       2.472   4.435   2.162  1.00  0.00    -0.165 F 
ATOM     20  F   UNL     1       4.209   4.988   0.990  1.00  0.00    -0.165 F 
ENDBRANCH   3  17
BRANCH   6  21
ATOM     21  C   UNL     1      -1.300   1.195   0.634  1.00  0.00     0.276 C 
ATOM     22  O   UNL     1      -1.890   2.070   1.256  1.00  0.00    -0.267 OA
ATOM     23  N   UNL     1      -1.892   0.114  -0.011  1.00  0.00    -0.311 N 
ATOM     24  H   UNL     1      -1.291  -0.460  -0.587  1.00  0.00     0.171 HD
BRANCH  23  25
ATOM     25  C   UNL     1      -3.243  -0.220  -0.024  1.00  0.00     0.114 A 
ATOM     26  S   UNL     1      -4.386   0.631   0.906  1.00  0.00    -0.121 S 
ATOM     27  C   UNL     1      -3.839  -1.252  -0.731  1.00  0.00     0.090 A 
ATOM     28  C   UNL     1      -5.667  -0.346   0.372  1.00  0.00     0.012 A 
ATOM     29  C   UNL     1      -5.254  -1.323  -0.512  1.00  0.00    -0.014 A 
ATOM     30  C   UNL     1      -3.104  -2.141  -1.580  1.00  0.00     0.103 C 
ATOM     31  C   UNL     1      -7.079  -0.113   0.815  1.00  0.00     0.050 C 
ATOM     32  C   UNL     1      -6.217  -2.314  -1.100  1.00  0.00     0.038 C 
ATOM     33  N   UNL     1      -2.468  -2.840  -2.253  1.00  0.00    -0.192 NA
ATOM     34  C   UNL     1      -7.959  -1.342   0.491  1.00  0.00    -0.009 C 
ATOM     35  C   UNL     1      -7.677  -1.863  -0.935  1.00  0.00     0.008 C 
ATOM     36  C   UNL     1      -9.437  -1.000   0.662  1.00  0.00     0.008 C 
ENDBRANCH  23  25
ENDBRANCH   6  21
TORSDOF 4
