REMARK SMILES Cc1ccc(CNC(=O)Cn2c(=O)n(-c3ccc(Cl)cc3)c(=O)c3c(C)c(C)sc32)cc1
REMARK SMILES IDX 7 1 8 2 9 3 6 5 5 6 2 7 3 8 32 9 4 10 31 11 1 12 10 13 11 14
REMARK SMILES IDX 12 15 30 16 13 17 14 18 29 19 24 20 22 21 27 22 25 23 23 24
REMARK SMILES IDX 28 25 26 26 15 27 16 28 21 29 17 30 20 31 18 32 19 33
REMARK H PARENT 7 4
ROOT
ATOM      1  N   UNL     1       2.547  -1.770   0.781  1.00  0.00    -0.350 N 
ATOM      2  C   UNL     1       1.279  -1.445   0.337  1.00  0.00     0.240 C 
ATOM      3  O   UNL     1       1.009  -1.264  -0.847  1.00  0.00    -0.273 OA
ATOM      4  H   UNL     1       2.749  -1.696   1.769  1.00  0.00     0.163 HD
ENDROOT
BRANCH   1   5
ATOM      5  C   UNL     1       3.683  -1.767  -0.114  1.00  0.00     0.151 C 
BRANCH   5   6
ATOM      6  C   UNL     1       4.497  -0.513   0.068  1.00  0.00    -0.029 A 
ATOM      7  C   UNL     1       5.976   1.856   0.452  1.00  0.00    -0.051 A 
ATOM      8  C   UNL     1       4.793   1.872  -0.295  1.00  0.00     0.004 A 
ATOM      9  C   UNL     1       6.423   0.645   0.992  1.00  0.00     0.004 A 
ATOM     10  C   UNL     1       4.057   0.699  -0.480  1.00  0.00     0.006 A 
ATOM     11  C   UNL     1       5.686  -0.528   0.809  1.00  0.00     0.006 A 
ATOM     12  C   UNL     1       6.783   3.109   0.621  1.00  0.00     0.044 C 
ENDBRANCH   5   6
ENDBRANCH   1   5
BRANCH   2  13
ATOM     13  C   UNL     1       0.248  -1.351   1.468  1.00  0.00     0.228 C 
BRANCH  13  14
ATOM     14  N   UNL     1      -1.072  -0.995   0.942  1.00  0.00    -0.274 N 
ATOM     15  C   UNL     1      -1.336   0.371   0.775  1.00  0.00     0.337 C 
ATOM     16  C   UNL     1      -2.024  -1.899   0.514  1.00  0.00     0.113 A 
ATOM     17  O   UNL     1      -0.516   1.194   1.204  1.00  0.00    -0.247 OA
ATOM     18  N   UNL     1      -2.561   0.745   0.173  1.00  0.00    -0.228 N 
ATOM     19  S   UNL     1      -1.786  -3.565   0.641  1.00  0.00    -0.122 S 
ATOM     20  C   UNL     1      -3.226  -1.568  -0.037  1.00  0.00     0.079 A 
ATOM     21  C   UNL     1      -3.553  -0.169  -0.239  1.00  0.00     0.269 C 
ATOM     22  C   UNL     1      -3.320  -3.903  -0.035  1.00  0.00     0.007 A 
ATOM     23  C   UNL     1      -4.008  -2.741  -0.363  1.00  0.00    -0.022 A 
ATOM     24  O   UNL     1      -4.619   0.134  -0.772  1.00  0.00    -0.268 OA
ATOM     25  C   UNL     1      -3.752  -5.322  -0.210  1.00  0.00     0.057 C 
ATOM     26  C   UNL     1      -5.371  -2.698  -0.982  1.00  0.00     0.046 C 
BRANCH  18  27
ATOM     27  C   UNL     1      -2.813   2.158  -0.037  1.00  0.00     0.054 A 
ATOM     28  C   UNL     1      -1.784   3.027  -0.442  1.00  0.00     0.028 A 
ATOM     29  C   UNL     1      -4.092   2.711   0.149  1.00  0.00     0.028 A 
ATOM     30  C   UNL     1      -2.021   4.392  -0.650  1.00  0.00     0.022 A 
ATOM     31  C   UNL     1      -4.334   4.075  -0.058  1.00  0.00     0.022 A 
ATOM     32  C   UNL     1      -3.296   4.910  -0.456  1.00  0.00     0.041 A 
ATOM     33  Cl  UNL     1      -3.591   6.585  -0.710  1.00  0.00    -0.084 Cl
ENDBRANCH  18  27
ENDBRANCH  13  14
ENDBRANCH   2  13
TORSDOF 5
