REMARK SMILES Cc1ccc(C)c(Cn2c(=O)n(-c3ccc(Cl)cc3)c(=O)c3c(C)c(C)sc32)c1
REMARK SMILES IDX 9 1 10 2 11 3 12 4 20 5 21 6 22 7 23 8 24 9 25 10 26 11
REMARK SMILES IDX 27 12 28 13 8 14 7 15 2 16 3 17 29 18 4 19 5 20 1 21 6 22
REMARK SMILES IDX 13 23 14 24 19 25 15 26 18 27 16 28 17 29
REMARK H PARENT
ROOT
ATOM      1  N   UNL     1       0.126   0.112  -1.088  1.00  0.00    -0.279 N 
ATOM      2  C   UNL     1      -0.517  -1.133  -1.023  1.00  0.00     0.337 C 
ATOM      3  O   UNL     1       0.076  -2.141  -1.428  1.00  0.00    -0.247 OA
ATOM      4  N   UNL     1      -1.810  -1.189  -0.447  1.00  0.00    -0.228 N 
ATOM      5  C   UNL     1      -2.486  -0.077   0.097  1.00  0.00     0.269 C 
ATOM      6  O   UNL     1      -3.631  -0.094   0.544  1.00  0.00    -0.268 OA
ATOM      7  C   UNL     1      -1.753   1.172   0.051  1.00  0.00     0.079 A 
ATOM      8  C   UNL     1      -2.149   2.475   0.544  1.00  0.00    -0.022 A 
ATOM      9  C   UNL     1      -3.447   2.753   1.236  1.00  0.00     0.046 C 
ATOM     10  C   UNL     1      -1.167   3.422   0.284  1.00  0.00     0.007 A 
ATOM     11  C   UNL     1      -1.164   4.877   0.621  1.00  0.00     0.057 C 
ATOM     12  S   UNL     1       0.173   2.742  -0.529  1.00  0.00    -0.122 S 
ATOM     13  C   UNL     1      -0.521   1.203  -0.534  1.00  0.00     0.113 A 
ENDROOT
BRANCH   1  14
ATOM     14  C   UNL     1       1.469   0.161  -1.695  1.00  0.00     0.164 C 
BRANCH  14  15
ATOM     15  C   UNL     1       2.610   0.263  -0.693  1.00  0.00    -0.025 A 
ATOM     16  C   UNL     1       3.637  -0.514   1.397  1.00  0.00    -0.051 A 
ATOM     17  C   UNL     1       4.707   0.356   1.187  1.00  0.00     0.004 A 
ATOM     18  C   UNL     1       2.610  -0.567   0.446  1.00  0.00     0.009 A 
ATOM     19  C   UNL     1       4.743   1.164   0.051  1.00  0.00     0.004 A 
ATOM     20  C   UNL     1       3.712   1.121  -0.903  1.00  0.00    -0.046 A 
ATOM     21  C   UNL     1       3.618  -1.426   2.587  1.00  0.00     0.044 C 
ATOM     22  C   UNL     1       3.825   2.001  -2.119  1.00  0.00     0.044 C 
ENDBRANCH  14  15
ENDBRANCH   1  14
BRANCH   4  23
ATOM     23  C   UNL     1      -2.489  -2.472  -0.411  1.00  0.00     0.054 A 
ATOM     24  C   UNL     1      -3.272  -2.852   0.693  1.00  0.00     0.028 A 
ATOM     25  C   UNL     1      -2.392  -3.381  -1.480  1.00  0.00     0.028 A 
ATOM     26  C   UNL     1      -3.930  -4.088   0.730  1.00  0.00     0.022 A 
ATOM     27  C   UNL     1      -3.048  -4.618  -1.447  1.00  0.00     0.022 A 
ATOM     28  C   UNL     1      -3.815  -4.967  -0.341  1.00  0.00     0.041 A 
ATOM     29  Cl  UNL     1      -4.621  -6.484  -0.299  1.00  0.00    -0.084 Cl
ENDBRANCH   4  23
TORSDOF 3
