REMARK SMILES Cc1ccc(-n2c(=O)c3c4c(sc3n(CC(=O)c3ccc(Cl)cc3)c2=O)CCC4)cc1C
REMARK SMILES IDX 15 1 14 2 6 3 7 4 25 5 8 6 9 7 26 8 10 9 13 10 11 11 29 12
REMARK SMILES IDX 12 13 27 14 28 15 5 16 2 17 3 18 31 19 4 20 30 21 1 22 32 23
REMARK SMILES IDX 16 24 17 25 18 26 19 27 24 28 20 29 23 30 21 31 22 32
REMARK H PARENT
ROOT
ATOM      1  C   UNL     1       2.389  -0.462  -0.941  1.00  0.00     0.209 C 
ENDROOT
BRANCH   1   2
ATOM      2  N   UNL     1       1.115   0.194  -0.630  1.00  0.00    -0.276 N 
ATOM      3  N   UNL     1      -1.277  -0.014  -0.303  1.00  0.00    -0.228 N 
ATOM      4  C   UNL     1      -1.426   1.326   0.114  1.00  0.00     0.269 C 
ATOM      5  C   UNL     1      -0.044  -0.598  -0.692  1.00  0.00     0.337 C 
ATOM      6  O   UNL     1      -2.475   1.863   0.464  1.00  0.00    -0.268 OA
ATOM      7  C   UNL     1      -0.200   2.085   0.157  1.00  0.00     0.079 A 
ATOM      8  O   UNL     1       0.051  -1.751  -1.133  1.00  0.00    -0.247 OA
ATOM      9  C   UNL     1       0.019   3.427   0.544  1.00  0.00    -0.019 A 
ATOM     10  C   UNL     1       0.987   1.497  -0.194  1.00  0.00     0.113 A 
ATOM     11  C   UNL     1       1.339   3.776   0.470  1.00  0.00     0.011 A 
ATOM     12  C   UNL     1      -0.811   4.561   1.022  1.00  0.00     0.038 C 
ATOM     13  S   UNL     1       2.337   2.540  -0.049  1.00  0.00    -0.122 S 
ATOM     14  C   UNL     1       1.618   5.173   0.874  1.00  0.00     0.047 C 
ATOM     15  C   UNL     1       0.268   5.557   1.556  1.00  0.00     0.010 C 
BRANCH   3  16
ATOM     16  C   UNL     1      -2.464  -0.848  -0.334  1.00  0.00     0.054 A 
ATOM     17  C   UNL     1      -4.793  -2.483  -0.385  1.00  0.00    -0.048 A 
ATOM     18  C   UNL     1      -3.560  -2.998   0.031  1.00  0.00     0.006 A 
ATOM     19  C   UNL     1      -4.870  -1.135  -0.775  1.00  0.00    -0.046 A 
ATOM     20  C   UNL     1      -2.417  -2.193   0.056  1.00  0.00     0.027 A 
ATOM     21  C   UNL     1      -3.708  -0.339  -0.746  1.00  0.00     0.030 A 
ATOM     22  C   UNL     1      -6.002  -3.377  -0.395  1.00  0.00     0.044 C 
ATOM     23  C   UNL     1      -6.167  -0.524  -1.233  1.00  0.00     0.044 C 
ENDBRANCH   3  16
ENDBRANCH   1   2
BRANCH   1  24
ATOM     24  C   UNL     1       3.004  -1.069   0.319  1.00  0.00     0.182 C 
ATOM     25  O   UNL     1       2.437  -1.061   1.412  1.00  0.00    -0.292 OA
BRANCH  24  26
ATOM     26  C   UNL     1       4.358  -1.697   0.216  1.00  0.00     0.020 A 
ATOM     27  C   UNL     1       5.028  -1.850  -1.006  1.00  0.00     0.013 A 
ATOM     28  C   UNL     1       4.972  -2.151   1.394  1.00  0.00     0.013 A 
ATOM     29  C   UNL     1       6.295  -2.444  -1.043  1.00  0.00     0.021 A 
ATOM     30  C   UNL     1       6.237  -2.743   1.354  1.00  0.00     0.021 A 
ATOM     31  C   UNL     1       6.894  -2.887   0.135  1.00  0.00     0.041 A 
ATOM     32  Cl  UNL     1       8.451  -3.614   0.081  1.00  0.00    -0.084 Cl
ENDBRANCH  24  26
ENDBRANCH   1  24
TORSDOF 4
