REMARK SMILES Cc1ccc(-n2c(=O)c3c4c(sc3n(Cc3cccc(Cl)c3)c2=O)CCC4)cc1C
REMARK SMILES IDX 6 1 7 2 8 3 9 4 10 5 11 6 12 7 13 8 14 9 23 10 24 11 25 12
REMARK SMILES IDX 26 13 27 14 5 15 2 16 3 17 29 18 4 19 28 20 1 21 30 22 15 23
REMARK SMILES IDX 16 24 17 25 22 26 18 27 20 28 19 29 21 30
REMARK H PARENT
ROOT
ATOM      1  N   UNL     1       0.996   0.101  -0.029  1.00  0.00    -0.228 N 
ATOM      2  C   UNL     1       0.699   1.463   0.188  1.00  0.00     0.269 C 
ATOM      3  O   UNL     1       1.438   2.289   0.719  1.00  0.00    -0.268 OA
ATOM      4  C   UNL     1      -0.578   1.891  -0.326  1.00  0.00     0.079 A 
ATOM      5  C   UNL     1      -1.184   3.168  -0.282  1.00  0.00    -0.019 A 
ATOM      6  C   UNL     1      -2.403   3.181  -0.900  1.00  0.00     0.011 A 
ATOM      7  S   UNL     1      -2.847   1.705  -1.545  1.00  0.00    -0.122 S 
ATOM      8  C   UNL     1      -1.390   1.003  -0.984  1.00  0.00     0.113 A 
ATOM      9  N   UNL     1      -1.088  -0.330  -1.195  1.00  0.00    -0.279 N 
ATOM     10  C   UNL     1       0.133  -0.813  -0.689  1.00  0.00     0.337 C 
ATOM     11  O   UNL     1       0.392  -2.017  -0.802  1.00  0.00    -0.247 OA
ATOM     12  C   UNL     1      -3.079   4.498  -0.877  1.00  0.00     0.047 C 
ATOM     13  C   UNL     1      -1.905   5.422  -0.425  1.00  0.00     0.010 C 
ATOM     14  C   UNL     1      -0.843   4.506   0.263  1.00  0.00     0.038 C 
ENDROOT
BRANCH   1  15
ATOM     15  C   UNL     1       2.268  -0.394   0.465  1.00  0.00     0.054 A 
ATOM     16  C   UNL     1       4.767  -1.362   1.428  1.00  0.00    -0.048 A 
ATOM     17  C   UNL     1       4.025  -0.428   2.159  1.00  0.00     0.006 A 
ATOM     18  C   UNL     1       4.257  -1.823   0.202  1.00  0.00    -0.046 A 
ATOM     19  C   UNL     1       2.798   0.047   1.685  1.00  0.00     0.027 A 
ATOM     20  C   UNL     1       3.021  -1.332  -0.263  1.00  0.00     0.030 A 
ATOM     21  C   UNL     1       6.080  -1.853   1.971  1.00  0.00     0.044 C 
ATOM     22  C   UNL     1       5.010  -2.825  -0.632  1.00  0.00     0.044 C 
ENDBRANCH   1  15
BRANCH   9  23
ATOM     23  C   UNL     1      -1.979  -1.291  -1.860  1.00  0.00     0.164 C 
BRANCH  23  24
ATOM     24  C   UNL     1      -3.088  -1.806  -0.965  1.00  0.00    -0.027 A 
ATOM     25  C   UNL     1      -4.433  -1.571  -1.291  1.00  0.00     0.006 A 
ATOM     26  C   UNL     1      -2.796  -2.547   0.192  1.00  0.00     0.026 A 
ATOM     27  C   UNL     1      -5.460  -2.045  -0.471  1.00  0.00     0.002 A 
ATOM     28  C   UNL     1      -3.826  -3.017   1.007  1.00  0.00     0.041 A 
ATOM     29  C   UNL     1      -5.156  -2.767   0.681  1.00  0.00     0.020 A 
ATOM     30  Cl  UNL     1      -3.450  -3.915   2.426  1.00  0.00    -0.084 Cl
ENDBRANCH  23  24
ENDBRANCH   9  23
TORSDOF 3
