REMARK SMILES Cc1ccc(Cl)cc1-n1nnc(-c2nsc(NC(=O)c3ccccc3Cl)n2)c1C
REMARK SMILES IDX 13 1 14 2 15 3 16 4 27 5 12 6 9 7 10 8 28 9 11 10 29 11 8 12
REMARK SMILES IDX 2 13 3 14 4 15 7 16 5 17 1 18 6 19 17 20 18 21 19 22 20 24
REMARK SMILES IDX 21 25 25 26 22 27 24 28 23 29 26 30
REMARK H PARENT 17 23
ROOT
ATOM      1  C   UNL     1       0.193  -0.004  -0.736  1.00  0.00     0.197 A 
ATOM      2  N   UNL     1       0.349  -0.023  -2.065  1.00  0.00    -0.167 NA
ATOM      3  S   UNL     1       1.997  -0.027  -2.345  1.00  0.00     0.005 S 
ATOM      4  C   UNL     1       2.386   0.001  -0.685  1.00  0.00     0.209 A 
ATOM      5  N   UNL     1       1.322   0.012   0.081  1.00  0.00    -0.196 NA
ENDROOT
BRANCH   1   6
ATOM      6  C   UNL     1      -1.131   0.014  -0.096  1.00  0.00     0.154 A 
ATOM      7  N   UNL     1      -3.252   0.052   0.435  1.00  0.00    -0.217 N 
ATOM      8  N   UNL     1      -2.519   0.093   1.574  1.00  0.00    -0.061 NA
ATOM      9  C   UNL     1      -2.395  -0.093  -0.653  1.00  0.00     0.073 A 
ATOM     10  N   UNL     1      -1.235   0.116   1.260  1.00  0.00    -0.126 NA
ATOM     11  C   UNL     1      -2.803  -0.378  -2.051  1.00  0.00     0.069 C 
BRANCH   7  12
ATOM     12  C   UNL     1      -4.670   0.216   0.476  1.00  0.00     0.071 A 
ATOM     13  C   UNL     1      -5.440  -0.191   1.594  1.00  0.00    -0.025 A 
ATOM     14  C   UNL     1      -6.828   0.052   1.587  1.00  0.00     0.007 A 
ATOM     15  C   UNL     1      -7.450   0.667   0.502  1.00  0.00     0.021 A 
ATOM     16  C   UNL     1      -5.310   0.847  -0.606  1.00  0.00     0.049 A 
ATOM     17  C   UNL     1      -6.688   1.061  -0.589  1.00  0.00     0.043 A 
ATOM     18  C   UNL     1      -4.873  -0.895   2.801  1.00  0.00     0.047 C 
ATOM     19  Cl  UNL     1      -7.446   1.841  -1.923  1.00  0.00    -0.084 Cl
ENDBRANCH   7  12
ENDBRANCH   1   6
BRANCH   4  20
ATOM     20  N   UNL     1       3.658   0.012  -0.178  1.00  0.00    -0.297 N 
ATOM     21  C   UNL     1       4.823   0.007  -0.905  1.00  0.00     0.258 C 
ATOM     22  O   UNL     1       4.916  -0.047  -2.126  1.00  0.00    -0.269 OA
ATOM     23  H   UNL     1       3.686   0.057   0.833  1.00  0.00     0.172 HD
BRANCH  21  24
ATOM     24  C   UNL     1       6.084  -0.002  -0.110  1.00  0.00     0.058 A 
ATOM     25  C   UNL     1       7.128  -0.802  -0.609  1.00  0.00     0.015 A 
ATOM     26  C   UNL     1       6.294   0.733   1.065  1.00  0.00     0.053 A 
ATOM     27  C   UNL     1       8.347  -0.887   0.066  1.00  0.00     0.001 A 
ATOM     28  C   UNL     1       7.519   0.642   1.737  1.00  0.00     0.021 A 
ATOM     29  C   UNL     1       8.541  -0.169   1.241  1.00  0.00     0.002 A 
ATOM     30  Cl  UNL     1       5.118   1.807   1.737  1.00  0.00    -0.083 Cl
ENDBRANCH  21  24
ENDBRANCH   4  20
TORSDOF 4
