REMARK SMILES CC1=C(C(=O)Nc2ccc(C)cc2C)C(C(C)C)n2nc(SCc3ccccc3Cl)nc2N1
REMARK SMILES IDX 1 1 2 2 3 3 15 4 19 5 20 6 21 7 31 8 32 9 33 10 4 12 5 13
REMARK SMILES IDX 6 14 7 16 8 17 13 18 9 19 12 20 10 21 14 22 11 23 16 24
REMARK SMILES IDX 17 25 18 26 22 27 23 28 24 29 25 30 29 31 26 32 28 33 27 34
REMARK SMILES IDX 30 35
REMARK H PARENT 33 11 6 15
ROOT
ATOM      1  C   UNL     1      -1.024   0.674   3.158  1.00  0.00     0.065 C 
ATOM      2  C   UNL     1      -0.176   0.605   1.913  1.00  0.00     0.026 C 
ATOM      3  C   UNL     1      -0.543  -0.017   0.766  1.00  0.00     0.061 C 
ATOM      4  C   UNL     1       0.393  -0.132  -0.438  1.00  0.00     0.151 C 
ATOM      5  N   UNL     1       1.511   0.801  -0.275  1.00  0.00    -0.222 N 
ATOM      6  N   UNL     1       2.294   1.223  -1.282  1.00  0.00    -0.142 NA
ATOM      7  C   UNL     1       3.163   1.990  -0.615  1.00  0.00     0.210 A 
ATOM      8  N   UNL     1       2.909   2.153   0.723  1.00  0.00    -0.185 NA
ATOM      9  C   UNL     1       1.841   1.419   0.902  1.00  0.00     0.227 A 
ATOM     10  N   UNL     1       1.061   1.235   1.984  1.00  0.00    -0.328 N 
ATOM     11  H   UNL     1       1.289   1.737   2.838  1.00  0.00     0.169 HD
ENDROOT
BRANCH   3  12
ATOM     12  C   UNL     1      -1.902  -0.585   0.590  1.00  0.00     0.255 C 
ATOM     13  O   UNL     1      -2.050  -1.796   0.534  1.00  0.00    -0.269 OA
ATOM     14  N   UNL     1      -2.858   0.405   0.488  1.00  0.00    -0.322 N 
ATOM     15  H   UNL     1      -2.522   1.357   0.541  1.00  0.00     0.170 HD
BRANCH  14  16
ATOM     16  C   UNL     1      -4.254   0.249   0.319  1.00  0.00     0.044 A 
ATOM     17  C   UNL     1      -4.863  -1.007   0.241  1.00  0.00     0.027 A 
ATOM     18  C   UNL     1      -5.062   1.404   0.234  1.00  0.00    -0.027 A 
ATOM     19  C   UNL     1      -6.246  -1.129   0.074  1.00  0.00     0.005 A 
ATOM     20  C   UNL     1      -6.453   1.265   0.065  1.00  0.00     0.009 A 
ATOM     21  C   UNL     1      -7.051   0.004  -0.028  1.00  0.00    -0.051 A 
ATOM     22  C   UNL     1      -4.493   2.796   0.317  1.00  0.00     0.046 C 
ATOM     23  C   UNL     1      -8.538  -0.126  -0.174  1.00  0.00     0.044 C 
ENDBRANCH  14  16
ENDBRANCH   3  12
BRANCH   4  24
ATOM     24  C   UNL     1       0.868  -1.595  -0.702  1.00  0.00     0.012 C 
ATOM     25  C   UNL     1       1.664  -1.740  -2.005  1.00  0.00     0.010 C 
ATOM     26  C   UNL     1       1.666  -2.201   0.458  1.00  0.00     0.010 C 
ENDBRANCH   4  24
BRANCH   7  27
ATOM     27  S   UNL     1       4.519   2.725  -1.415  1.00  0.00    -0.080 SA
BRANCH  27  28
ATOM     28  C   UNL     1       5.867   1.902  -0.515  1.00  0.00     0.115 C 
BRANCH  28  29
ATOM     29  C   UNL     1       5.976   0.423  -0.813  1.00  0.00    -0.019 A 
ATOM     30  C   UNL     1       6.341   0.018  -2.113  1.00  0.00     0.006 A 
ATOM     31  C   UNL     1       5.730  -0.576   0.144  1.00  0.00     0.045 A 
ATOM     32  C   UNL     1       6.440  -1.334  -2.449  1.00  0.00     0.000 A 
ATOM     33  C   UNL     1       5.831  -1.930  -0.197  1.00  0.00     0.021 A 
ATOM     34  C   UNL     1       6.182  -2.309  -1.492  1.00  0.00     0.002 A 
ATOM     35  Cl  UNL     1       5.306  -0.212   1.779  1.00  0.00    -0.084 Cl
ENDBRANCH  28  29
ENDBRANCH  27  28
ENDBRANCH   7  27
TORSDOF 6
