REMARK SMILES Cc1cc(NC(=O)c2cc(-c3cccc(Cl)c3)on2)nn1Cc1ccc(Cl)cc1
REMARK SMILES IDX 1 1 2 2 3 3 4 4 20 5 21 6 22 7 23 8 24 9 29 10 25 11 28 12
REMARK SMILES IDX 26 13 27 14 5 15 6 16 7 17 8 19 9 20 19 21 10 22 18 23 11 24
REMARK SMILES IDX 12 25 17 26 13 27 15 28 14 29 16 30
REMARK H PARENT 5 18
ROOT
ATOM      1  C   UNL     1      -4.384  -0.646   2.351  1.00  0.00     0.066 C 
ATOM      2  C   UNL     1      -3.062  -0.653   1.682  1.00  0.00     0.038 A 
ATOM      3  C   UNL     1      -1.821  -0.274   2.151  1.00  0.00     0.072 A 
ATOM      4  C   UNL     1      -0.928  -0.488   1.084  1.00  0.00     0.155 A 
ATOM      5  N   UNL     1      -1.555  -0.970   0.009  1.00  0.00    -0.154 NA
ATOM      6  N   UNL     1      -2.852  -1.053   0.385  1.00  0.00    -0.263 N 
ENDROOT
BRANCH   6   7
ATOM      7  C   UNL     1      -3.831  -1.582  -0.560  1.00  0.00     0.180 C 
BRANCH   7   8
ATOM      8  C   UNL     1      -4.698  -0.499  -1.159  1.00  0.00    -0.026 A 
ATOM      9  C   UNL     1      -4.126   0.557  -1.888  1.00  0.00     0.007 A 
ATOM     10  C   UNL     1      -6.094  -0.549  -1.021  1.00  0.00     0.007 A 
ATOM     11  C   UNL     1      -4.931   1.550  -2.452  1.00  0.00     0.021 A 
ATOM     12  C   UNL     1      -6.898   0.444  -1.586  1.00  0.00     0.021 A 
ATOM     13  C   UNL     1      -6.314   1.489  -2.297  1.00  0.00     0.041 A 
ATOM     14  Cl  UNL     1      -7.307   2.711  -2.992  1.00  0.00    -0.084 Cl
ENDBRANCH   7   8
ENDBRANCH   6   7
BRANCH   4  15
ATOM     15  N   UNL     1       0.426  -0.283   1.002  1.00  0.00    -0.304 N 
ATOM     16  C   UNL     1       1.228   0.199   2.016  1.00  0.00     0.279 C 
ATOM     17  O   UNL     1       0.818   0.503   3.133  1.00  0.00    -0.267 OA
ATOM     18  H   UNL     1       0.796  -0.534   0.101  1.00  0.00     0.171 HD
BRANCH  16  19
ATOM     19  C   UNL     1       2.652   0.322   1.650  1.00  0.00     0.172 A 
ATOM     20  C   UNL     1       3.304   0.050   0.412  1.00  0.00     0.088 A 
ATOM     21  N   UNL     1       3.552   0.750   2.551  1.00  0.00    -0.074 NA
ATOM     22  C   UNL     1       4.633   0.337   0.628  1.00  0.00     0.167 A 
ATOM     23  O   UNL     1       4.773   0.757   1.915  1.00  0.00    -0.355 OA
BRANCH  22  24
ATOM     24  C   UNL     1       5.847   0.291  -0.182  1.00  0.00     0.022 A 
ATOM     25  C   UNL     1       7.093   0.665   0.349  1.00  0.00     0.012 A 
ATOM     26  C   UNL     1       5.795  -0.132  -1.518  1.00  0.00     0.032 A 
ATOM     27  C   UNL     1       8.253   0.619  -0.431  1.00  0.00     0.002 A 
ATOM     28  C   UNL     1       6.956  -0.177  -2.293  1.00  0.00     0.041 A 
ATOM     29  C   UNL     1       8.185   0.196  -1.756  1.00  0.00     0.020 A 
ATOM     30  Cl  UNL     1       6.866  -0.700  -3.931  1.00  0.00    -0.084 Cl
ENDBRANCH  22  24
ENDBRANCH  16  19
ENDBRANCH   4  15
TORSDOF 5
