REMARK SMILES COc1ccc2c(c1)CCc1c(C(=O)Nc3c(C)nn(Cc4c(Cl)cccc4Cl)c3C)noc1-2
REMARK SMILES IDX 16 1 17 2 18 3 19 4 20 5 30 6 31 7 15 8 13 9 14 10 12 12
REMARK SMILES IDX 3 13 4 14 8 15 5 16 7 17 6 18 9 19 34 20 10 21 33 22 11 23
REMARK SMILES IDX 32 24 2 25 1 26 21 27 22 28 23 29 28 30 25 31 27 32 26 33
REMARK SMILES IDX 24 34 29 35
REMARK H PARENT 15 11
ROOT
ATOM      1  C   UNL     1      -1.948  -0.944  -0.146  1.00  0.00     0.085 A 
ATOM      2  C   UNL     1      -2.289  -2.245  -0.611  1.00  0.00     0.083 A 
ATOM      3  C   UNL     1      -1.473  -3.176  -1.429  1.00  0.00     0.071 C 
ATOM      4  N   UNL     1      -3.517  -2.602  -0.233  1.00  0.00    -0.175 NA
ATOM      5  N   UNL     1      -3.999  -1.510   0.397  1.00  0.00    -0.263 N 
ATOM      6  C   UNL     1      -3.035  -0.546   0.611  1.00  0.00     0.060 A 
ATOM      7  C   UNL     1      -3.252   0.615   1.512  1.00  0.00     0.069 C 
ENDROOT
BRANCH   1   8
ATOM      8  N   UNL     1      -0.737  -0.312  -0.383  1.00  0.00    -0.317 N 
ATOM      9  C   UNL     1      -0.469   1.043  -0.278  1.00  0.00     0.278 C 
ATOM     10  O   UNL     1      -1.301   1.920  -0.073  1.00  0.00    -0.267 OA
ATOM     11  H   UNL     1      -0.049  -0.869  -0.871  1.00  0.00     0.170 HD
BRANCH   9  12
ATOM     12  C   UNL     1       0.951   1.361  -0.504  1.00  0.00     0.175 A 
ATOM     13  C   UNL     1       7.227   0.268  -0.253  1.00  0.00     0.119 A 
ATOM     14  C   UNL     1       6.891   1.362  -1.056  1.00  0.00     0.047 A 
ATOM     15  C   UNL     1       6.219  -0.435   0.417  1.00  0.00     0.050 A 
ATOM     16  C   UNL     1       5.555   1.756  -1.194  1.00  0.00     0.016 A 
ATOM     17  C   UNL     1       4.876  -0.062   0.279  1.00  0.00    -0.033 A 
ATOM     18  C   UNL     1       4.552   1.051  -0.531  1.00  0.00     0.024 A 
ATOM     19  C   UNL     1       3.788  -0.775   1.080  1.00  0.00     0.041 C 
ATOM     20  C   UNL     1       3.148   1.363  -0.631  1.00  0.00     0.171 A 
ATOM     21  C   UNL     1       2.361  -0.715   0.466  1.00  0.00     0.047 C 
ATOM     22  O   UNL     1       2.698   2.507  -1.179  1.00  0.00    -0.355 OA
ATOM     23  C   UNL     1       2.106   0.596  -0.184  1.00  0.00     0.033 A 
ATOM     24  N   UNL     1       1.312   2.522  -1.091  1.00  0.00    -0.074 NA
BRANCH  13  25
ATOM     25  O   UNL     1       8.491  -0.209  -0.034  1.00  0.00    -0.497 OA
ATOM     26  C   UNL     1       9.558   0.477  -0.677  1.00  0.00     0.278 C 
ENDBRANCH  13  25
ENDBRANCH   9  12
ENDBRANCH   1   8
BRANCH   5  27
ATOM     27  C   UNL     1      -5.397  -1.535   0.840  1.00  0.00     0.183 C 
BRANCH  27  28
ATOM     28  C   UNL     1      -6.214  -0.349   0.372  1.00  0.00     0.011 A 
ATOM     29  C   UNL     1      -6.414  -0.083  -0.999  1.00  0.00     0.047 A 
ATOM     30  C   UNL     1      -6.840   0.520   1.290  1.00  0.00     0.047 A 
ATOM     31  C   UNL     1      -7.149   1.031  -1.426  1.00  0.00     0.021 A 
ATOM     32  C   UNL     1      -7.574   1.632   0.858  1.00  0.00     0.021 A 
ATOM     33  C   UNL     1      -7.721   1.894  -0.499  1.00  0.00     0.003 A 
ATOM     34  Cl  UNL     1      -5.820  -1.124  -2.246  1.00  0.00    -0.084 Cl
ATOM     35  Cl  UNL     1      -6.776   0.270   3.002  1.00  0.00    -0.084 Cl
ENDBRANCH  27  28
ENDBRANCH   5  27
TORSDOF 5
