REMARK SMILES Cc1ccc(C)c(Cn2c(=O)n(-c3ccc(Cl)cc3)c(=O)c3c4c(sc32)CCC4)c1
REMARK SMILES IDX 9 1 10 2 11 3 12 4 20 5 21 6 22 7 23 8 24 9 25 10 26 11
REMARK SMILES IDX 27 12 28 13 29 14 8 15 7 16 2 17 3 18 30 19 4 20 5 21 1 22
REMARK SMILES IDX 6 23 13 24 14 25 19 26 15 27 18 28 16 29 17 30
REMARK H PARENT
ROOT
ATOM      1  N   UNL     1      -0.066  -0.879   0.676  1.00  0.00    -0.279 N 
ATOM      2  C   UNL     1       0.931  -1.598  -0.009  1.00  0.00     0.337 C 
ATOM      3  O   UNL     1       0.733  -2.785  -0.297  1.00  0.00    -0.247 OA
ATOM      4  N   UNL     1       2.116  -0.913  -0.387  1.00  0.00    -0.228 N 
ATOM      5  C   UNL     1       2.388   0.436  -0.086  1.00  0.00     0.269 C 
ATOM      6  O   UNL     1       3.419   1.043  -0.368  1.00  0.00    -0.268 OA
ATOM      7  C   UNL     1       1.361   1.102   0.674  1.00  0.00     0.079 A 
ATOM      8  C   UNL     1       1.332   2.424   1.175  1.00  0.00    -0.019 A 
ATOM      9  C   UNL     1       0.192   2.678   1.885  1.00  0.00     0.011 A 
ATOM     10  S   UNL     1      -0.849   1.376   1.974  1.00  0.00    -0.122 S 
ATOM     11  C   UNL     1       0.215   0.432   1.022  1.00  0.00     0.113 A 
ATOM     12  C   UNL     1       0.119   4.048   2.441  1.00  0.00     0.047 C 
ATOM     13  C   UNL     1       1.280   4.743   1.664  1.00  0.00     0.010 C 
ATOM     14  C   UNL     1       2.223   3.610   1.147  1.00  0.00     0.038 C 
ENDROOT
BRANCH   1  15
ATOM     15  C   UNL     1      -1.308  -1.593   1.024  1.00  0.00     0.164 C 
BRANCH  15  16
ATOM     16  C   UNL     1      -2.574  -1.069   0.361  1.00  0.00    -0.025 A 
ATOM     17  C   UNL     1      -4.814  -0.107   0.676  1.00  0.00    -0.051 A 
ATOM     18  C   UNL     1      -4.981  -0.064  -0.707  1.00  0.00     0.004 A 
ATOM     19  C   UNL     1      -3.613  -0.603   1.196  1.00  0.00     0.009 A 
ATOM     20  C   UNL     1      -3.980  -0.544  -1.550  1.00  0.00     0.004 A 
ATOM     21  C   UNL     1      -2.780  -1.066  -1.035  1.00  0.00    -0.046 A 
ATOM     22  C   UNL     1      -5.875   0.428   1.590  1.00  0.00     0.044 C 
ATOM     23  C   UNL     1      -1.764  -1.594  -2.008  1.00  0.00     0.044 C 
ENDBRANCH  15  16
ENDBRANCH   1  15
BRANCH   4  24
ATOM     24  C   UNL     1       3.128  -1.648  -1.124  1.00  0.00     0.054 A 
ATOM     25  C   UNL     1       3.847  -1.044  -2.171  1.00  0.00     0.028 A 
ATOM     26  C   UNL     1       3.431  -2.987  -0.820  1.00  0.00     0.028 A 
ATOM     27  C   UNL     1       4.825  -1.747  -2.886  1.00  0.00     0.022 A 
ATOM     28  C   UNL     1       4.408  -3.694  -1.532  1.00  0.00     0.022 A 
ATOM     29  C   UNL     1       5.101  -3.071  -2.563  1.00  0.00     0.041 A 
ATOM     30  Cl  UNL     1       6.301  -3.936  -3.438  1.00  0.00    -0.084 Cl
ENDBRANCH   4  24
TORSDOF 3
