REMARK SMILES Cc1ccc(-n2c(=O)c3c4c(sc3n(CC(=O)Nc3ccccc3C)c2=O)CCCCC4)cc1C
REMARK SMILES IDX 6 1 7 2 8 3 9 4 10 5 11 6 12 7 13 8 14 9 26 10 27 11 5 12
REMARK SMILES IDX 2 13 3 14 34 15 4 16 33 17 1 18 35 19 15 20 16 21 17 22
REMARK SMILES IDX 18 23 19 25 20 26 24 27 21 28 23 29 22 30 25 31 32 32 31 33
REMARK SMILES IDX 28 35 29 36 30 37
REMARK H PARENT 18 24
REMARK Flexibility Score:   52.900
ROOT
ATOM      1  N   UNL     1      -1.864  -0.526  -0.201  1.00  0.00    -0.228 N 
ATOM      2  C   UNL     1      -2.294   0.784   0.104  1.00  0.00     0.269 C 
ATOM      3  O   UNL     1      -3.399   1.069   0.560  1.00  0.00    -0.268 OA
ATOM      4  C   UNL     1      -1.308   1.830  -0.114  1.00  0.00     0.079 A 
ATOM      5  C   UNL     1      -1.407   3.263   0.098  1.00  0.00    -0.019 A 
ATOM      6  C   UNL     1      -0.209   3.892  -0.210  1.00  0.00     0.011 A 
ATOM      7  S   UNL     1       0.983   2.792  -0.734  1.00  0.00    -0.122 S 
ATOM      8  C   UNL     1      -0.069   1.480  -0.571  1.00  0.00     0.113 A 
ATOM      9  N   UNL     1       0.333   0.198  -0.888  1.00  0.00    -0.274 N 
ATOM     10  C   UNL     1      -0.583  -0.846  -0.705  1.00  0.00     0.337 C 
ATOM     11  O   UNL     1      -0.249  -1.990  -1.039  1.00  0.00    -0.247 OA
ENDROOT
BRANCH   1  12
ATOM     12  C   UNL     1      -2.798  -1.614   0.019  1.00  0.00     0.054 A 
ATOM     13  C   UNL     1      -4.623  -3.752   0.464  1.00  0.00    -0.048 A 
ATOM     14  C   UNL     1      -5.060  -2.527  -0.053  1.00  0.00     0.006 A 
ATOM     15  C   UNL     1      -3.259  -3.917   0.761  1.00  0.00    -0.046 A 
ATOM     16  C   UNL     1      -4.162  -1.476  -0.270  1.00  0.00     0.027 A 
ATOM     17  C   UNL     1      -2.369  -2.848   0.539  1.00  0.00     0.030 A 
ATOM     18  C   UNL     1      -5.617  -4.859   0.684  1.00  0.00     0.044 C 
ATOM     19  C   UNL     1      -2.729  -5.207   1.326  1.00  0.00     0.044 C 
ENDBRANCH   1  12
BRANCH   9  20
ATOM     20  C   UNL     1       1.682  -0.181  -1.314  1.00  0.00     0.228 C 
BRANCH  20  21
ATOM     21  C   UNL     1       2.573  -0.535  -0.112  1.00  0.00     0.244 C 
ATOM     22  O   UNL     1       2.201  -0.371   1.046  1.00  0.00    -0.273 OA
ATOM     23  N   UNL     1       3.810  -1.022  -0.520  1.00  0.00    -0.324 N 
ATOM     24  H   UNL     1       3.937  -1.140  -1.515  1.00  0.00     0.170 HD
BRANCH  23  25
ATOM     25  C   UNL     1       4.902  -1.417   0.290  1.00  0.00     0.044 A 
ATOM     26  C   UNL     1       4.879  -1.316   1.686  1.00  0.00     0.026 A 
ATOM     27  C   UNL     1       6.063  -1.927  -0.335  1.00  0.00    -0.027 A 
ATOM     28  C   UNL     1       5.976  -1.711   2.457  1.00  0.00     0.002 A 
ATOM     29  C   UNL     1       7.159  -2.321   0.455  1.00  0.00     0.005 A 
ATOM     30  C   UNL     1       7.115  -2.213   1.842  1.00  0.00     0.000 A 
ATOM     31  C   UNL     1       6.179  -2.074  -1.829  1.00  0.00     0.046 C 
ENDBRANCH  23  25
ENDBRANCH  20  21
ENDBRANCH   9  20
BRANCH   5  32
ATOM     32  C   UNL     1      -2.610   4.021   0.593  1.00  0.00     0.037 C 
BRANCH  32  33
ATOM     33  C   UNL     1      -3.091   5.089  -0.393  1.00  0.00     0.005 CG0
ATOM     34  G   UNL     1      -2.240   6.361  -0.407  1.00  0.00     0.000 G0
ENDBRANCH  32  33
ENDBRANCH   5  32
BRANCH   6  35
ATOM     35  C   UNL     1       0.106   5.356  -0.122  1.00  0.00     0.047 C 
BRANCH  35  36
ATOM     36  C   UNL     1      -0.833   6.198  -0.987  1.00  0.00     0.006 C 
BRANCH  36  37
ATOM     37  C   UNL     1      -2.240   6.361  -0.407  1.00  0.00     0.001 CG0
ATOM     38  G   UNL     1      -3.091   5.089  -0.393  1.00  0.00     0.000 G0
ENDBRANCH  36  37
ENDBRANCH  35  36
ENDBRANCH   6  35
TORSDOF 4
