REMARK SMILES CCN(CC)C(=O)Cn1c(=O)n(-c2ccc(C)c(C)c2)c(=O)c2c3c(sc21)CCCCC3
REMARK SMILES IDX 9 1 10 2 11 3 12 4 21 5 22 6 23 7 24 8 25 9 26 10 27 11 8 12
REMARK SMILES IDX 6 13 3 14 7 15 2 16 1 17 4 18 5 19 13 20 14 21 20 22 15 23
REMARK SMILES IDX 18 24 16 25 19 26 17 27 28 28 29 29 30 30 32 32 31 33
REMARK H PARENT
REMARK Flexibility Score:    8.900
ROOT
ATOM      1  N   UNL     1       0.684  -0.178   0.789  1.00  0.00    -0.274 N 
ATOM      2  C   UNL     1      -0.061  -1.264   0.306  1.00  0.00     0.337 C 
ATOM      3  O   UNL     1       0.464  -2.384   0.286  1.00  0.00    -0.247 OA
ATOM      4  N   UNL     1      -1.378  -1.014  -0.148  1.00  0.00    -0.228 N 
ATOM      5  C   UNL     1      -1.980   0.262  -0.167  1.00  0.00     0.269 C 
ATOM      6  O   UNL     1      -3.165   0.477  -0.416  1.00  0.00    -0.268 OA
ATOM      7  C   UNL     1      -1.115   1.363   0.216  1.00  0.00     0.079 A 
ATOM      8  C   UNL     1      -1.380   2.790   0.198  1.00  0.00    -0.019 A 
ATOM      9  C   UNL     1      -0.305   3.495   0.729  1.00  0.00     0.011 A 
ATOM     10  S   UNL     1       0.998   2.463   1.138  1.00  0.00    -0.122 S 
ATOM     11  C   UNL     1       0.136   1.085   0.681  1.00  0.00     0.113 A 
ENDROOT
BRANCH   1  12
ATOM     12  C   UNL     1       2.072  -0.450   1.186  1.00  0.00     0.228 C 
BRANCH  12  13
ATOM     13  C   UNL     1       3.040  -0.285   0.002  1.00  0.00     0.242 C 
ATOM     14  N   UNL     1       4.406  -0.389   0.277  1.00  0.00    -0.342 N 
ATOM     15  O   UNL     1       2.629  -0.074  -1.142  1.00  0.00    -0.273 OA
BRANCH  14  16
ATOM     16  C   UNL     1       4.973  -0.669   1.597  1.00  0.00     0.116 C 
ATOM     17  C   UNL     1       5.343   0.608   2.335  1.00  0.00     0.027 C 
ENDBRANCH  14  16
BRANCH  14  18
ATOM     18  C   UNL     1       5.346  -0.235  -0.834  1.00  0.00     0.116 C 
ATOM     19  C   UNL     1       5.616  -1.560  -1.530  1.00  0.00     0.027 C 
ENDBRANCH  14  18
ENDBRANCH  12  13
ENDBRANCH   1  12
BRANCH   4  20
ATOM     20  C   UNL     1      -2.178  -2.139  -0.600  1.00  0.00     0.054 A 
ATOM     21  C   UNL     1      -3.059  -2.010  -1.683  1.00  0.00     0.027 A 
ATOM     22  C   UNL     1      -2.106  -3.395   0.026  1.00  0.00     0.030 A 
ATOM     23  C   UNL     1      -3.834  -3.089  -2.123  1.00  0.00     0.006 A 
ATOM     24  C   UNL     1      -2.877  -4.493  -0.406  1.00  0.00    -0.046 A 
ATOM     25  C   UNL     1      -3.755  -4.336  -1.492  1.00  0.00    -0.048 A 
ATOM     26  C   UNL     1      -2.750  -5.807   0.315  1.00  0.00     0.044 C 
ATOM     27  C   UNL     1      -4.600  -5.473  -1.995  1.00  0.00     0.044 C 
ENDBRANCH   4  20
BRANCH   9  28
ATOM     28  C   UNL     1      -0.154   4.975   0.960  1.00  0.00     0.047 C 
BRANCH  28  29
ATOM     29  C   UNL     1      -1.466   5.633   1.382  1.00  0.00     0.006 C 
BRANCH  29  30
ATOM     30  C   UNL     1      -2.424   5.911   0.222  1.00  0.00     0.001 CG0
ATOM     31  G   UNL     1      -2.521   4.826  -0.850  1.00  0.00     0.000 G0
ENDBRANCH  29  30
ENDBRANCH  28  29
ENDBRANCH   9  28
BRANCH   8  32
ATOM     32  C   UNL     1      -2.666   3.406  -0.304  1.00  0.00     0.037 C 
BRANCH  32  33
ATOM     33  C   UNL     1      -2.521   4.826  -0.850  1.00  0.00     0.005 CG0
ATOM     34  G   UNL     1      -2.424   5.911   0.222  1.00  0.00     0.000 G0
ENDBRANCH  32  33
ENDBRANCH   8  32
TORSDOF 5
