REMARK SMILES Cc1ccc(NC(=O)Cn2c(=O)n(CCc3ccccc3)c(=O)c3c4c(sc32)CCCC4)cc1C
REMARK SMILES IDX 10 1 11 2 12 3 13 4 22 5 23 6 24 7 25 8 26 9 27 10 28 11
REMARK SMILES IDX 29 12 30 13 31 14 32 15 9 16 7 17 6 18 8 19 5 21 2 22 3 23
REMARK SMILES IDX 34 24 4 25 33 26 1 27 35 28 14 29 15 30 16 31 17 32 21 33
REMARK SMILES IDX 18 34 20 35 19 36
REMARK H PARENT 6 20
ROOT
ATOM      1  N   UNL     1      -0.283   1.553  -1.622  1.00  0.00    -0.275 N 
ATOM      2  C   UNL     1      -0.816   0.686  -2.578  1.00  0.00     0.332 C 
ATOM      3  O   UNL     1      -0.113   0.241  -3.493  1.00  0.00    -0.247 OA
ATOM      4  N   UNL     1      -2.168   0.345  -2.473  1.00  0.00    -0.259 N 
ATOM      5  C   UNL     1      -3.059   0.833  -1.513  1.00  0.00     0.265 C 
ATOM      6  O   UNL     1      -4.267   0.606  -1.519  1.00  0.00    -0.268 OA
ATOM      7  C   UNL     1      -2.450   1.671  -0.503  1.00  0.00     0.079 A 
ATOM      8  C   UNL     1      -3.038   2.262   0.665  1.00  0.00    -0.019 A 
ATOM      9  C   UNL     1      -2.108   3.006   1.369  1.00  0.00     0.011 A 
ATOM     10  S   UNL     1      -0.565   2.966   0.655  1.00  0.00    -0.122 S 
ATOM     11  C   UNL     1      -1.121   1.979  -0.606  1.00  0.00     0.113 A 
ATOM     12  C   UNL     1      -2.377   3.743   2.644  1.00  0.00     0.047 C 
ATOM     13  C   UNL     1      -3.889   3.909   2.858  1.00  0.00     0.006 C 
ATOM     14  C   UNL     1      -4.648   2.606   2.570  1.00  0.00     0.005 C 
ATOM     15  C   UNL     1      -4.467   2.147   1.114  1.00  0.00     0.037 C 
ENDROOT
BRANCH   1  16
ATOM     16  C   UNL     1       1.157   1.797  -1.683  1.00  0.00     0.228 C 
BRANCH  16  17
ATOM     17  C   UNL     1       1.945   0.729  -0.908  1.00  0.00     0.244 C 
ATOM     18  N   UNL     1       3.313   0.979  -0.942  1.00  0.00    -0.325 N 
ATOM     19  O   UNL     1       1.397  -0.213  -0.342  1.00  0.00    -0.273 OA
ATOM     20  H   UNL     1       3.618   1.781  -1.478  1.00  0.00     0.169 HD
BRANCH  18  21
ATOM     21  C   UNL     1       4.342   0.229  -0.334  1.00  0.00     0.041 A 
ATOM     22  C   UNL     1       6.521  -1.156   0.818  1.00  0.00    -0.048 A 
ATOM     23  C   UNL     1       6.730  -0.011   0.039  1.00  0.00     0.006 A 
ATOM     24  C   UNL     1       5.205  -1.611   1.023  1.00  0.00    -0.046 A 
ATOM     25  C   UNL     1       5.653   0.673  -0.530  1.00  0.00     0.026 A 
ATOM     26  C   UNL     1       4.129  -0.911   0.443  1.00  0.00     0.029 A 
ATOM     27  C   UNL     1       7.702  -1.870   1.415  1.00  0.00     0.044 C 
ATOM     28  C   UNL     1       4.920  -2.836   1.849  1.00  0.00     0.044 C 
ENDBRANCH  18  21
ENDBRANCH  16  17
ENDBRANCH   1  16
BRANCH   4  29
ATOM     29  C   UNL     1      -2.677  -0.656  -3.409  1.00  0.00     0.135 C 
BRANCH  29  30
ATOM     30  C   UNL     1      -2.207  -2.082  -3.072  1.00  0.00     0.057 C 
BRANCH  30  31
ATOM     31  C   UNL     1      -2.565  -2.518  -1.671  1.00  0.00    -0.046 A 
ATOM     32  C   UNL     1      -3.868  -2.931  -1.363  1.00  0.00     0.004 A 
ATOM     33  C   UNL     1      -1.606  -2.471  -0.650  1.00  0.00     0.004 A 
ATOM     34  C   UNL     1      -4.203  -3.291  -0.057  1.00  0.00     0.000 A 
ATOM     35  C   UNL     1      -1.945  -2.829   0.655  1.00  0.00     0.000 A 
ATOM     36  C   UNL     1      -3.242  -3.240   0.952  1.00  0.00     0.000 A 
ENDBRANCH  30  31
ENDBRANCH  29  30
ENDBRANCH   4  29
TORSDOF 6
