REMARK SMILES Cc1cc(C)cc(N2C(N)=NC(N)=NC2c2cccc(Cl)c2)c1
REMARK SMILES IDX 8 1 9 2 10 3 11 4 12 5 13 6 14 7 15 8 7 13 2 14 3 15 23 16
REMARK SMILES IDX 4 17 6 18 1 19 5 20 16 21 17 22 22 23 18 24 20 25 19 26
REMARK SMILES IDX 21 27
REMARK H PARENT 10 9 10 10 13 11 13 12
ROOT
ATOM      1  N   UNL     1      -0.351   0.972   0.180  1.00  0.00    -0.285 N 
ATOM      2  C   UNL     1      -0.640   2.258   0.537  1.00  0.00     0.205 C 
ATOM      3  N   UNL     1       0.074   2.761   1.582  1.00  0.00    -0.369 N 
ATOM      4  N   UNL     1      -1.558   2.999   0.013  1.00  0.00    -0.179 NA
ATOM      5  C   UNL     1      -2.261   2.502  -1.034  1.00  0.00     0.221 C 
ATOM      6  N   UNL     1      -3.125   3.360  -1.629  1.00  0.00    -0.368 N 
ATOM      7  N   UNL     1      -2.156   1.316  -1.510  1.00  0.00    -0.221 NA
ATOM      8  C   UNL     1      -1.235   0.400  -0.837  1.00  0.00     0.242 C 
ATOM      9  H   UNL     1       0.339   2.063   2.266  1.00  0.00     0.159 HD
ATOM     10  H   UNL     1      -0.369   3.574   1.990  1.00  0.00     0.159 HD
ATOM     11  H   UNL     1      -2.849   4.325  -1.508  1.00  0.00     0.159 HD
ATOM     12  H   UNL     1      -3.329   3.096  -2.583  1.00  0.00     0.159 HD
ENDROOT
BRANCH   1  13
ATOM     13  C   UNL     1       0.962   0.430   0.184  1.00  0.00     0.047 A 
ATOM     14  C   UNL     1       3.370   0.674  -0.190  1.00  0.00    -0.049 A 
ATOM     15  C   UNL     1       3.557  -0.669   0.149  1.00  0.00     0.007 A 
ATOM     16  C   UNL     1       2.074   1.209  -0.177  1.00  0.00     0.030 A 
ATOM     17  C   UNL     1       2.474  -1.463   0.539  1.00  0.00    -0.049 A 
ATOM     18  C   UNL     1       1.186  -0.908   0.545  1.00  0.00     0.030 A 
ATOM     19  C   UNL     1       4.532   1.518  -0.627  1.00  0.00     0.044 C 
ATOM     20  C   UNL     1       2.675  -2.908   0.889  1.00  0.00     0.044 C 
ENDBRANCH   1  13
BRANCH   8  21
ATOM     21  C   UNL     1      -2.050  -0.755  -0.249  1.00  0.00    -0.001 A 
ATOM     22  C   UNL     1      -2.870  -0.565   0.878  1.00  0.00     0.008 A 
ATOM     23  C   UNL     1      -2.012  -2.026  -0.847  1.00  0.00     0.028 A 
ATOM     24  C   UNL     1      -3.615  -1.621   1.405  1.00  0.00     0.002 A 
ATOM     25  C   UNL     1      -2.758  -3.077  -0.313  1.00  0.00     0.041 A 
ATOM     26  C   UNL     1      -3.556  -2.881   0.811  1.00  0.00     0.020 A 
ATOM     27  Cl  UNL     1      -2.686  -4.632  -1.048  1.00  0.00    -0.084 Cl
ENDBRANCH   8  21
TORSDOF 2
