REMARK SMILES C=C1C2(C)OC(=O)C34OC2C2=C(CO)C5(CCC2(C)C13C(=O)OC4C)C(O)CC(=O)OC5(C)C
REMARK SMILES IDX 1 1 2 2 3 3 4 4 5 5 6 6 7 7 8 8 9 9 10 10 11 11 12 12 15 13
REMARK SMILES IDX 16 14 17 15 18 16 19 17 20 18 21 19 22 20 23 21 24 22 25 23
REMARK SMILES IDX 26 24 28 25 29 26 30 27 31 28 32 29 33 30 34 31 13 32 14 33
REMARK SMILES IDX 27 35
REMARK H PARENT 14 34 27 36
ROOT
ATOM      1  C   UNL     1      -3.573  -2.279  -1.183  1.00  0.00     0.013 C 
ATOM      2  C   UNL     1      -2.914  -1.450  -0.358  1.00  0.00    -0.010 C 
ATOM      3  C   UNL     1      -2.550  -1.693   1.105  1.00  0.00     0.161 C 
ATOM      4  C   UNL     1      -2.312  -3.147   1.489  1.00  0.00     0.065 C 
ATOM      5  O   UNL     1      -3.713  -1.183   1.794  1.00  0.00    -0.449 OA
ATOM      6  C   UNL     1      -4.029   0.097   1.372  1.00  0.00     0.344 C 
ATOM      7  O   UNL     1      -5.116   0.597   1.612  1.00  0.00    -0.249 OA
ATOM      8  C   UNL     1      -2.833   0.759   0.630  1.00  0.00     0.223 C 
ATOM      9  O   UNL     1      -1.787   0.617   1.614  1.00  0.00    -0.346 OA
ATOM     10  C   UNL     1      -1.311  -0.771   1.515  1.00  0.00     0.195 C 
ATOM     11  C   UNL     1      -0.219  -0.589   0.455  1.00  0.00    -0.027 C 
ATOM     12  C   UNL     1       1.100  -0.424   0.767  1.00  0.00    -0.030 C 
ATOM     13  C   UNL     1       2.116   0.324  -0.182  1.00  0.00     0.060 C 
ATOM     14  C   UNL     1       1.375   0.955  -1.438  1.00  0.00     0.019 C 
ATOM     15  C   UNL     1      -0.143   1.131  -1.306  1.00  0.00     0.014 C 
ATOM     16  C   UNL     1      -0.852  -0.168  -0.887  1.00  0.00     0.015 C 
ATOM     17  C   UNL     1      -0.598  -1.260  -1.967  1.00  0.00     0.018 C 
ATOM     18  C   UNL     1      -2.434  -0.030  -0.654  1.00  0.00     0.145 C 
ATOM     19  C   UNL     1      -3.139   0.803  -1.708  1.00  0.00     0.321 C 
ATOM     20  O   UNL     1      -3.375   0.457  -2.854  1.00  0.00    -0.251 OA
ATOM     21  O   UNL     1      -3.451   2.044  -1.221  1.00  0.00    -0.458 OA
ATOM     22  C   UNL     1      -3.020   2.178   0.142  1.00  0.00     0.218 C 
ATOM     23  C   UNL     1      -3.980   3.087   0.892  1.00  0.00     0.057 C 
ATOM     24  C   UNL     1       2.765   1.522   0.603  1.00  0.00     0.139 C 
ATOM     25  C   UNL     1       3.819   2.289  -0.185  1.00  0.00     0.155 C 
ATOM     26  C   UNL     1       4.668   1.480  -1.124  1.00  0.00     0.309 C 
ATOM     27  O   UNL     1       5.707   1.934  -1.593  1.00  0.00    -0.252 OA
ATOM     28  O   UNL     1       4.206   0.274  -1.521  1.00  0.00    -0.459 OA
ATOM     29  C   UNL     1       3.351  -0.545  -0.676  1.00  0.00     0.118 C 
ATOM     30  C   UNL     1       2.948  -1.746  -1.555  1.00  0.00     0.057 C 
ATOM     31  C   UNL     1       4.283  -1.133   0.406  1.00  0.00     0.057 C 
ENDROOT
BRANCH  12  32
ATOM     32  C   UNL     1       1.558  -0.703   2.188  1.00  0.00     0.188 C 
BRANCH  32  33
ATOM     33  O   UNL     1       1.247   0.442   2.969  1.00  0.00    -0.392 OA
ATOM     34  H   UNL     1       1.417   0.209   3.899  1.00  0.00     0.211 HD
ENDBRANCH  32  33
ENDBRANCH  12  32
BRANCH  24  35
ATOM     35  O   UNL     1       1.764   2.454   1.034  1.00  0.00    -0.391 OA
ATOM     36  H   UNL     1       1.243   1.991   1.728  1.00  0.00     0.211 HD
ENDBRANCH  24  35
TORSDOF 3
