REMARK SMILES Cc1ccc(C)c(N2CCN(C(=O)c3ccc(Nc4nc5ccccc5n5nnnc45)cc3)CC2)c1
REMARK SMILES IDX 8 1 9 2 10 3 11 4 12 5 13 6 34 7 35 8 7 9 2 10 3 11 36 12
REMARK SMILES IDX 4 13 5 14 1 15 6 16 14 17 15 18 33 19 16 20 32 21 17 22
REMARK SMILES IDX 18 23 19 24 20 25 31 26 21 27 30 28 27 29 22 30 26 31 29 32
REMARK SMILES IDX 28 33 23 34 25 35 24 36
REMARK H PARENT 18 37
ROOT
ATOM      1  N   UNL     1      -4.274   0.008   0.951  1.00  0.00    -0.368 N 
ATOM      2  C   UNL     1      -3.102   0.496   0.190  1.00  0.00     0.138 C 
ATOM      3  C   UNL     1      -1.795  -0.067   0.776  1.00  0.00     0.141 C 
ATOM      4  N   UNL     1      -1.775  -1.539   0.792  1.00  0.00    -0.335 N 
ATOM      5  C   UNL     1      -0.636  -2.316   0.623  1.00  0.00     0.253 C 
ATOM      6  O   UNL     1      -0.669  -3.515   0.359  1.00  0.00    -0.269 OA
ATOM      7  C   UNL     1      -3.082  -2.201   0.728  1.00  0.00     0.141 C 
ATOM      8  C   UNL     1      -4.191  -1.395   1.424  1.00  0.00     0.138 C 
ENDROOT
BRANCH   1   9
ATOM      9  C   UNL     1      -5.485   0.354   0.318  1.00  0.00     0.040 A 
ATOM     10  C   UNL     1      -7.168  -0.004  -1.427  1.00  0.00    -0.049 A 
ATOM     11  C   UNL     1      -7.875   1.107  -0.964  1.00  0.00     0.004 A 
ATOM     12  C   UNL     1      -5.972  -0.362  -0.790  1.00  0.00     0.029 A 
ATOM     13  C   UNL     1      -7.406   1.832   0.132  1.00  0.00     0.006 A 
ATOM     14  C   UNL     1      -6.219   1.463   0.783  1.00  0.00    -0.028 A 
ATOM     15  C   UNL     1      -7.645  -0.765  -2.628  1.00  0.00     0.044 C 
ATOM     16  C   UNL     1      -5.744   2.266   1.963  1.00  0.00     0.046 C 
ENDBRANCH   1   9
BRANCH   5  17
ATOM     17  C   UNL     1       0.690  -1.676   0.770  1.00  0.00     0.040 A 
ATOM     18  C   UNL     1       1.619  -1.801  -0.263  1.00  0.00     0.016 A 
ATOM     19  C   UNL     1       1.034  -1.003   1.943  1.00  0.00     0.016 A 
ATOM     20  C   UNL     1       2.882  -1.212  -0.140  1.00  0.00     0.027 A 
ATOM     21  C   UNL     1       2.300  -0.421   2.059  1.00  0.00     0.027 A 
ATOM     22  C   UNL     1       3.241  -0.512   1.018  1.00  0.00     0.040 A 
BRANCH  22  23
ATOM     23  N   UNL     1       4.487   0.119   1.200  1.00  0.00    -0.337 N 
ATOM     24  C   UNL     1       5.445   0.399   0.252  1.00  0.00     0.178 C 
ATOM     25  N   UNL     1       6.693   0.227   0.639  1.00  0.00    -0.225 NA
ATOM     26  C   UNL     1       5.211   0.905  -1.078  1.00  0.00     0.222 A 
ATOM     27  C   UNL     1       7.764   0.493  -0.248  1.00  0.00     0.091 A 
ATOM     28  N   UNL     1       4.088   1.225  -1.682  1.00  0.00    -0.105 NA
ATOM     29  N   UNL     1       6.249   1.163  -1.918  1.00  0.00    -0.188 N 
ATOM     30  C   UNL     1       9.071   0.279   0.184  1.00  0.00     0.031 A 
ATOM     31  C   UNL     1       7.576   0.968  -1.556  1.00  0.00     0.095 A 
ATOM     32  N   UNL     1       4.461   1.661  -2.938  1.00  0.00    -0.023 NA
ATOM     33  N   UNL     1       5.782   1.622  -3.090  1.00  0.00    -0.039 NA
ATOM     34  C   UNL     1      10.152   0.533  -0.669  1.00  0.00     0.002 A 
ATOM     35  C   UNL     1       8.637   1.230  -2.422  1.00  0.00     0.031 A 
ATOM     36  C   UNL     1       9.935   1.007  -1.967  1.00  0.00     0.002 A 
ATOM     37  H   UNL     1       4.902  -0.122   2.094  1.00  0.00     0.168 HD
ENDBRANCH  22  23
ENDBRANCH   5  17
TORSDOF 3
