REMARK SMILES Cc1ccc(N2C(=O)c3[nH]nc(-c4ccc(Cl)cc4)c3C2c2ccc(F)cc2)cc1
REMARK SMILES IDX 6 1 7 2 8 3 9 4 10 5 11 6 12 7 20 8 21 9 5 11 2 12 3 13
REMARK SMILES IDX 30 14 4 15 29 16 1 17 22 18 23 19 28 20 24 21 27 22 25 23
REMARK SMILES IDX 26 24 13 25 14 26 19 27 15 28 18 29 16 30 17 31
REMARK H PARENT 10 10
ROOT
ATOM      1  N   UNL     1       1.420  -0.991   0.359  1.00  0.00    -0.295 N 
ATOM      2  C   UNL     1       1.380  -2.409   0.305  1.00  0.00     0.277 C 
ATOM      3  O   UNL     1       2.272  -3.233   0.217  1.00  0.00    -0.267 OA
ATOM      4  C   UNL     1       0.000  -2.714   0.401  1.00  0.00     0.129 A 
ATOM      5  N   UNL     1      -0.792  -3.796   0.461  1.00  0.00    -0.272 N 
ATOM      6  N   UNL     1      -2.094  -3.445   0.613  1.00  0.00    -0.174 NA
ATOM      7  C   UNL     1      -2.095  -2.093   0.617  1.00  0.00     0.099 A 
ATOM      8  C   UNL     1      -0.786  -1.608   0.489  1.00  0.00     0.038 A 
ATOM      9  C   UNL     1       0.049  -0.388   0.467  1.00  0.00     0.156 C 
ATOM     10  H   UNL     1      -0.543  -4.780   0.427  1.00  0.00     0.190 HD
ENDROOT
BRANCH   1  11
ATOM     11  C   UNL     1       2.605  -0.195   0.390  1.00  0.00     0.045 A 
ATOM     12  C   UNL     1       4.957   1.404   0.465  1.00  0.00    -0.051 A 
ATOM     13  C   UNL     1       5.035   0.028   0.254  1.00  0.00     0.005 A 
ATOM     14  C   UNL     1       3.698   1.983   0.620  1.00  0.00     0.005 A 
ATOM     15  C   UNL     1       3.876  -0.759   0.222  1.00  0.00     0.026 A 
ATOM     16  C   UNL     1       2.541   1.193   0.588  1.00  0.00     0.026 A 
ATOM     17  C   UNL     1       6.195   2.250   0.463  1.00  0.00     0.044 C 
ENDBRANCH   1  11
BRANCH   9  18
ATOM     18  C   UNL     1      -0.399   0.419  -0.736  1.00  0.00    -0.020 A 
ATOM     19  C   UNL     1      -1.185   1.571  -0.535  1.00  0.00     0.009 A 
ATOM     20  C   UNL     1      -0.059   0.062  -2.055  1.00  0.00     0.009 A 
ATOM     21  C   UNL     1      -1.617   2.338  -1.618  1.00  0.00     0.039 A 
ATOM     22  C   UNL     1      -0.494   0.831  -3.136  1.00  0.00     0.039 A 
ATOM     23  C   UNL     1      -1.268   1.961  -2.908  1.00  0.00     0.123 A 
ATOM     24  F   UNL     1      -1.686   2.697  -3.946  1.00  0.00    -0.207 F 
ENDBRANCH   9  18
BRANCH   7  25
ATOM     25  C   UNL     1      -3.329  -1.344   0.771  1.00  0.00     0.002 A 
ATOM     26  C   UNL     1      -3.854  -0.616  -0.304  1.00  0.00     0.012 A 
ATOM     27  C   UNL     1      -4.006  -1.354   1.997  1.00  0.00     0.012 A 
ATOM     28  C   UNL     1      -5.034   0.116  -0.147  1.00  0.00     0.021 A 
ATOM     29  C   UNL     1      -5.186  -0.623   2.153  1.00  0.00     0.021 A 
ATOM     30  C   UNL     1      -5.693   0.112   1.082  1.00  0.00     0.041 A 
ATOM     31  Cl  UNL     1      -7.142   1.017   1.277  1.00  0.00    -0.084 Cl
ENDBRANCH   7  25
TORSDOF 3
