REMARK SMILES Cc1ccc(C)c(NC(=O)c2ccc3c(c2)N(Cc2ccc(F)cc2)C(=O)CS3=O)c1
REMARK SMILES IDX 11 1 12 2 13 3 14 4 15 5 16 6 17 7 26 8 27 9 28 10 29 11
REMARK SMILES IDX 30 12 9 13 8 14 10 15 7 17 2 18 3 19 31 20 4 21 5 22 1 23
REMARK SMILES IDX 6 24 18 25 19 26 20 27 25 28 21 29 24 30 22 31 23 32
REMARK H PARENT 8 16
ROOT
ATOM      1  C   UNL     1      -0.230  -0.499  -1.015  1.00  0.00     0.042 A 
ATOM      2  C   UNL     1      -0.447  -1.013  -2.291  1.00  0.00     0.015 A 
ATOM      3  C   UNL     1       0.483  -1.895  -2.835  1.00  0.00     0.021 A 
ATOM      4  C   UNL     1       1.639  -2.254  -2.120  1.00  0.00     0.063 A 
ATOM      5  C   UNL     1       1.894  -1.728  -0.841  1.00  0.00     0.061 A 
ATOM      6  C   UNL     1       0.935  -0.848  -0.310  1.00  0.00     0.041 A 
ATOM      7  N   UNL     1       3.065  -2.096  -0.089  1.00  0.00    -0.306 N 
ATOM      8  C   UNL     1       4.148  -2.783  -0.645  1.00  0.00     0.240 C 
ATOM      9  O   UNL     1       5.097  -3.189   0.033  1.00  0.00    -0.273 OA
ATOM     10  C   UNL     1       4.229  -2.884  -2.140  1.00  0.00     0.210 C 
ATOM     11  S   UNL     1       2.717  -3.459  -2.888  1.00  0.00     0.065 S 
ATOM     12  O   UNL     1       2.334  -4.770  -2.270  1.00  0.00    -0.254 OA
ENDROOT
BRANCH   1  13
ATOM     13  C   UNL     1      -1.194   0.443  -0.371  1.00  0.00     0.255 C 
ATOM     14  N   UNL     1      -2.516   0.253  -0.726  1.00  0.00    -0.322 N 
ATOM     15  O   UNL     1      -0.762   1.234   0.457  1.00  0.00    -0.269 OA
ATOM     16  H   UNL     1      -2.738  -0.672  -1.072  1.00  0.00     0.170 HD
BRANCH  14  17
ATOM     17  C   UNL     1      -3.630   1.020  -0.313  1.00  0.00     0.044 A 
ATOM     18  C   UNL     1      -6.023   0.919   0.228  1.00  0.00    -0.049 A 
ATOM     19  C   UNL     1      -5.998   2.275   0.544  1.00  0.00     0.004 A 
ATOM     20  C   UNL     1      -4.837   0.303  -0.193  1.00  0.00     0.029 A 
ATOM     21  C   UNL     1      -4.821   3.007   0.388  1.00  0.00     0.006 A 
ATOM     22  C   UNL     1      -3.633   2.404  -0.072  1.00  0.00    -0.027 A 
ATOM     23  C   UNL     1      -7.278   0.118   0.406  1.00  0.00     0.044 C 
ATOM     24  C   UNL     1      -2.463   3.318  -0.306  1.00  0.00     0.046 C 
ENDBRANCH  14  17
ENDBRANCH   1  13
BRANCH   7  25
ATOM     25  C   UNL     1       3.137  -1.821   1.356  1.00  0.00     0.161 C 
BRANCH  25  26
ATOM     26  C   UNL     1       3.690  -0.447   1.695  1.00  0.00    -0.028 A 
ATOM     27  C   UNL     1       4.975  -0.059   1.277  1.00  0.00     0.008 A 
ATOM     28  C   UNL     1       2.939   0.449   2.477  1.00  0.00     0.008 A 
ATOM     29  C   UNL     1       5.480   1.201   1.603  1.00  0.00     0.039 A 
ATOM     30  C   UNL     1       3.445   1.711   2.798  1.00  0.00     0.039 A 
ATOM     31  C   UNL     1       4.709   2.076   2.356  1.00  0.00     0.123 A 
ATOM     32  F   UNL     1       5.195   3.285   2.668  1.00  0.00    -0.207 F 
ENDBRANCH  25  26
ENDBRANCH   7  25
TORSDOF 4
