REMARK SMILES Cc1cccc(N2CCN(C(=O)CCc3c(C)nc4c(c3C)c(=O)n(C)c(=O)n4C)CC2)c1C
REMARK SMILES IDX 13 1 11 2 7 3 8 4 32 5 9 6 31 7 10 8 12 9 6 10 2 11 3 12
REMARK SMILES IDX 33 13 4 14 5 15 1 16 34 17 14 18 15 19 16 20 21 21 18 22
REMARK SMILES IDX 20 23 19 24 23 25 29 26 24 27 25 28 27 29 28 30 17 31 22 32
REMARK SMILES IDX 30 33 26 34
REMARK H PARENT
ROOT
ATOM      1  C   UNL     1       0.686  -0.024   1.303  1.00  0.00     0.105 C 
ENDROOT
BRANCH   1   2
ATOM      2  C   UNL     1      -0.642  -0.164   2.028  1.00  0.00     0.223 C 
ATOM      3  N   UNL     1      -4.129  -0.487  -0.408  1.00  0.00    -0.368 N 
ATOM      4  C   UNL     1      -2.990  -1.354  -0.751  1.00  0.00     0.138 C 
ATOM      5  C   UNL     1      -4.181  -0.008   0.997  1.00  0.00     0.138 C 
ATOM      6  C   UNL     1      -1.687  -0.746  -0.200  1.00  0.00     0.141 C 
ATOM      7  C   UNL     1      -3.063  -0.606   1.873  1.00  0.00     0.141 C 
ATOM      8  N   UNL     1      -1.737  -0.503   1.250  1.00  0.00    -0.339 N 
ATOM      9  O   UNL     1      -0.731   0.017   3.242  1.00  0.00    -0.275 OA
BRANCH   3  10
ATOM     10  C   UNL     1      -5.386  -0.779  -0.959  1.00  0.00     0.040 A 
ATOM     11  C   UNL     1      -7.590  -0.043  -1.765  1.00  0.00    -0.046 A 
ATOM     12  C   UNL     1      -7.958  -1.381  -1.957  1.00  0.00     0.004 A 
ATOM     13  C   UNL     1      -6.287   0.266  -1.297  1.00  0.00    -0.025 A 
ATOM     14  C   UNL     1      -7.067  -2.405  -1.665  1.00  0.00     0.002 A 
ATOM     15  C   UNL     1      -5.800  -2.105  -1.168  1.00  0.00     0.026 A 
ATOM     16  C   UNL     1      -8.590   1.031  -2.102  1.00  0.00     0.044 C 
ATOM     17  C   UNL     1      -5.869   1.710  -1.150  1.00  0.00     0.047 C 
ENDBRANCH   3  10
ENDBRANCH   1   2
BRANCH   1  18
ATOM     18  C   UNL     1       1.797   0.441   2.247  1.00  0.00     0.047 C 
BRANCH  18  19
ATOM     19  C   UNL     1       3.123   0.601   1.527  1.00  0.00    -0.022 A 
ATOM     20  C   UNL     1       3.489   1.848   0.998  1.00  0.00     0.043 A 
ATOM     21  C   UNL     1       4.018  -0.485   1.339  1.00  0.00    -0.030 A 
ATOM     22  N   UNL     1       4.651   2.049   0.336  1.00  0.00    -0.235 NA
ATOM     23  C   UNL     1       5.251  -0.246   0.675  1.00  0.00     0.086 A 
ATOM     24  C   UNL     1       5.517   1.021   0.182  1.00  0.00     0.149 A 
ATOM     25  C   UNL     1       6.297  -1.278   0.486  1.00  0.00     0.265 C 
ATOM     26  N   UNL     1       6.715   1.293  -0.507  1.00  0.00    -0.280 N 
ATOM     27  O   UNL     1       6.222  -2.360   1.064  1.00  0.00    -0.268 OA
ATOM     28  N   UNL     1       7.364  -0.956  -0.342  1.00  0.00    -0.263 N 
ATOM     29  C   UNL     1       7.656   0.325  -0.780  1.00  0.00     0.332 C 
ATOM     30  O   UNL     1       8.707   0.581  -1.371  1.00  0.00    -0.247 OA
ATOM     31  C   UNL     1       2.627   3.072   1.133  1.00  0.00     0.067 C 
ATOM     32  C   UNL     1       3.684  -1.867   1.852  1.00  0.00     0.046 C 
ATOM     33  C   UNL     1       6.935   2.662  -0.953  1.00  0.00     0.157 C 
ATOM     34  C   UNL     1       8.362  -1.984  -0.582  1.00  0.00     0.158 C 
ENDBRANCH  18  19
ENDBRANCH   1  18
TORSDOF 4
