REMARK SMILES Cc1ccc2oc(=O)c3cnn(CC(=O)N4CCN(c5cccc(C(F)(F)F)c5)CC4)c3c2c1
REMARK SMILES IDX 14 1 15 2 16 3 17 4 18 5 19 6 30 7 31 8 13 9 12 10 2 11 3 12
REMARK SMILES IDX 34 13 4 14 33 15 5 16 32 17 6 18 9 19 7 20 11 21 10 22 8 23
REMARK SMILES IDX 1 24 20 25 21 26 29 27 22 28 24 29 23 30 25 31 26 32 27 33
REMARK SMILES IDX 28 34
REMARK H PARENT
ROOT
ATOM      1  C   UNL     1      -0.967  -0.624   0.306  1.00  0.00     0.244 C 
ATOM      2  O   UNL     1      -1.347  -0.666   1.477  1.00  0.00    -0.273 OA
ATOM      3  N   UNL     1       0.350  -0.305  -0.007  1.00  0.00    -0.338 N 
ATOM      4  C   UNL     1       1.324  -0.156   1.080  1.00  0.00     0.141 C 
ATOM      5  C   UNL     1       2.742  -0.602   0.680  1.00  0.00     0.138 C 
ATOM      6  N   UNL     1       3.212   0.080  -0.542  1.00  0.00    -0.368 N 
ATOM      7  C   UNL     1       2.191   0.666  -1.422  1.00  0.00     0.138 C 
ATOM      8  C   UNL     1       0.873  -0.132  -1.368  1.00  0.00     0.141 C 
ENDROOT
BRANCH   1   9
ATOM      9  C   UNL     1      -1.917  -0.850  -0.856  1.00  0.00     0.244 C 
BRANCH   9  10
ATOM     10  N   UNL     1      -3.059  -1.673  -0.495  1.00  0.00    -0.254 N 
ATOM     11  C   UNL     1      -4.762   2.278   1.228  1.00  0.00    -0.050 A 
ATOM     12  C   UNL     1      -6.114   2.214   1.592  1.00  0.00     0.007 A 
ATOM     13  C   UNL     1      -4.118   1.131   0.725  1.00  0.00     0.017 A 
ATOM     14  C   UNL     1      -6.822   1.024   1.451  1.00  0.00     0.048 A 
ATOM     15  C   UNL     1      -4.815  -0.065   0.554  1.00  0.00     0.044 A 
ATOM     16  C   UNL     1      -6.168  -0.096   0.942  1.00  0.00     0.140 A 
ATOM     17  C   UNL     1      -4.277  -1.316   0.036  1.00  0.00     0.087 A 
ATOM     18  O   UNL     1      -6.948  -1.287   0.863  1.00  0.00    -0.422 OA
ATOM     19  C   UNL     1      -5.044  -2.466  -0.014  1.00  0.00     0.106 A 
ATOM     20  C   UNL     1      -6.419  -2.514   0.416  1.00  0.00     0.347 C 
ATOM     21  N   UNL     1      -3.012  -2.980  -0.867  1.00  0.00    -0.179 NA
ATOM     22  C   UNL     1      -4.217  -3.456  -0.552  1.00  0.00     0.151 A 
ATOM     23  O   UNL     1      -7.100  -3.533   0.382  1.00  0.00    -0.246 OA
ATOM     24  C   UNL     1      -3.984   3.545   1.442  1.00  0.00     0.044 C 
ENDBRANCH   9  10
ENDBRANCH   1   9
BRANCH   6  25
ATOM     25  C   UNL     1       4.565   0.297  -0.755  1.00  0.00     0.037 A 
ATOM     26  C   UNL     1       5.035   1.336  -1.574  1.00  0.00     0.026 A 
ATOM     27  C   UNL     1       5.543  -0.525  -0.170  1.00  0.00     0.039 A 
ATOM     28  C   UNL     1       6.401   1.550  -1.795  1.00  0.00     0.003 A 
ATOM     29  C   UNL     1       6.923  -0.325  -0.371  1.00  0.00     0.058 A 
ATOM     30  C   UNL     1       7.342   0.721  -1.198  1.00  0.00     0.013 A 
BRANCH  29  31
ATOM     31  C   UNL     1       7.924  -1.256   0.262  1.00  0.00     0.416 C 
ATOM     32  F   UNL     1       7.529  -1.713   1.484  1.00  0.00    -0.166 F 
ATOM     33  F   UNL     1       8.153  -2.365  -0.494  1.00  0.00    -0.166 F 
ATOM     34  F   UNL     1       9.143  -0.681   0.460  1.00  0.00    -0.166 F 
ENDBRANCH  29  31
ENDBRANCH   6  25
TORSDOF 4
