REMARK SMILES Cc1ccc(CN2CCSc3ccc(C(=O)N4CCN(c5cc(C)ccc5C)CC4)cc32)cc1
REMARK SMILES IDX 7 1 8 2 9 3 10 4 11 5 12 6 13 7 14 8 31 9 32 10 6 11 5 12
REMARK SMILES IDX 2 13 3 14 34 15 4 16 33 17 1 18 15 19 16 20 17 21 18 22
REMARK SMILES IDX 30 23 19 24 29 25 20 26 21 27 22 28 27 29 23 30 26 31 25 32
REMARK SMILES IDX 28 33 24 34
REMARK H PARENT
ROOT
ATOM      1  N   UNL     1      -3.933  -1.534   1.031  1.00  0.00    -0.365 N 
ATOM      2  C   UNL     1      -5.007  -1.658   2.035  1.00  0.00     0.128 C 
ATOM      3  C   UNL     1      -4.469  -1.997   3.413  1.00  0.00     0.096 C 
ATOM      4  S   UNL     1      -3.586  -0.570   4.079  1.00  0.00    -0.122 SA
ATOM      5  C   UNL     1      -2.613  -0.159   2.624  1.00  0.00     0.031 A 
ATOM      6  C   UNL     1      -1.549   0.732   2.874  1.00  0.00     0.018 A 
ATOM      7  C   UNL     1      -0.676   1.102   1.859  1.00  0.00     0.015 A 
ATOM      8  C   UNL     1      -0.853   0.554   0.595  1.00  0.00     0.042 A 
ATOM      9  C   UNL     1      -1.929  -0.308   0.331  1.00  0.00     0.041 A 
ATOM     10  C   UNL     1      -2.862  -0.675   1.321  1.00  0.00     0.052 A 
ENDROOT
BRANCH   1  11
ATOM     11  C   UNL     1      -4.346  -1.852  -0.349  1.00  0.00     0.152 C 
BRANCH  11  12
ATOM     12  C   UNL     1      -5.391  -0.897  -0.891  1.00  0.00    -0.029 A 
ATOM     13  C   UNL     1      -7.356   0.863  -1.904  1.00  0.00    -0.051 A 
ATOM     14  C   UNL     1      -6.021   1.267  -1.807  1.00  0.00     0.004 A 
ATOM     15  C   UNL     1      -7.708  -0.420  -1.475  1.00  0.00     0.004 A 
ATOM     16  C   UNL     1      -5.048   0.395  -1.311  1.00  0.00     0.006 A 
ATOM     17  C   UNL     1      -6.735  -1.292  -0.978  1.00  0.00     0.006 A 
ATOM     18  C   UNL     1      -8.403   1.813  -2.405  1.00  0.00     0.044 C 
ENDBRANCH  11  12
ENDBRANCH   1  11
BRANCH   8  19
ATOM     19  C   UNL     1       0.046   0.929  -0.518  1.00  0.00     0.254 C 
ATOM     20  O   UNL     1      -0.470   1.394  -1.531  1.00  0.00    -0.269 OA
ATOM     21  N   UNL     1       1.422   0.763  -0.356  1.00  0.00    -0.335 N 
ATOM     22  C   UNL     1       2.266   1.135  -1.502  1.00  0.00     0.141 C 
ATOM     23  C   UNL     1       1.992  -0.302   0.492  1.00  0.00     0.141 C 
ATOM     24  C   UNL     1       3.722   1.422  -1.088  1.00  0.00     0.138 C 
ATOM     25  C   UNL     1       3.459  -0.033   0.884  1.00  0.00     0.138 C 
ATOM     26  N   UNL     1       4.250   0.282  -0.319  1.00  0.00    -0.368 N 
BRANCH  26  27
ATOM     27  C   UNL     1       5.634   0.199  -0.129  1.00  0.00     0.040 A 
ATOM     28  C   UNL     1       6.225  -1.031  -0.485  1.00  0.00     0.029 A 
ATOM     29  C   UNL     1       6.464   1.208   0.396  1.00  0.00    -0.028 A 
ATOM     30  C   UNL     1       7.598  -1.272  -0.354  1.00  0.00    -0.049 A 
ATOM     31  C   UNL     1       7.851   0.971   0.497  1.00  0.00     0.006 A 
ATOM     32  C   UNL     1       8.411  -0.250   0.126  1.00  0.00     0.004 A 
ATOM     33  C   UNL     1       5.968   2.556   0.838  1.00  0.00     0.046 C 
ATOM     34  C   UNL     1       8.185  -2.581  -0.789  1.00  0.00     0.044 C 
ENDBRANCH  26  27
ENDBRANCH   8  19
TORSDOF 4
