REMARK SMILES Cc1cc(C)cc(-n2c(SCC(=O)Nc3ccccc3F)nc3c(oc4ccccc43)c2=O)c1
REMARK SMILES IDX 10 1 9 2 8 3 32 4 22 5 24 6 33 7 23 8 25 9 31 10 26 11 30 12
REMARK SMILES IDX 27 13 29 14 28 15 7 16 2 17 3 18 34 19 4 20 6 21 1 22 5 23
REMARK SMILES IDX 11 24 12 25 13 26 14 27 15 29 16 30 20 31 17 32 19 33 18 34
REMARK SMILES IDX 21 35
REMARK H PARENT 14 28
ROOT
ATOM      1  S   UNL     1      -0.129  -1.274   2.332  1.00  0.00    -0.077 SA
ENDROOT
BRANCH   1   2
ATOM      2  C   UNL     1      -0.764  -0.249   1.035  1.00  0.00     0.176 C 
ATOM      3  N   UNL     1      -1.412  -0.835  -0.076  1.00  0.00    -0.252 N 
ATOM      4  C   UNL     1      -1.708  -0.051  -1.217  1.00  0.00     0.302 C 
ATOM      5  N   UNL     1      -0.467   1.009   1.203  1.00  0.00    -0.219 NA
ATOM      6  C   UNL     1      -1.322   1.311  -1.035  1.00  0.00     0.219 A 
ATOM      7  O   UNL     1      -2.268  -0.457  -2.234  1.00  0.00    -0.265 OA
ATOM      8  C   UNL     1      -0.762   1.803   0.102  1.00  0.00     0.125 A 
ATOM      9  O   UNL     1      -1.465   2.291  -1.966  1.00  0.00    -0.448 OA
ATOM     10  C   UNL     1      -0.496   3.168  -0.099  1.00  0.00     0.047 A 
ATOM     11  C   UNL     1      -0.951   3.426  -1.394  1.00  0.00     0.137 A 
ATOM     12  C   UNL     1       0.082   4.216   0.637  1.00  0.00     0.014 A 
ATOM     13  C   UNL     1      -0.875   4.674  -2.006  1.00  0.00     0.048 A 
ATOM     14  C   UNL     1       0.173   5.482   0.042  1.00  0.00     0.001 A 
ATOM     15  C   UNL     1      -0.299   5.705  -1.255  1.00  0.00     0.004 A 
BRANCH   3  16
ATOM     16  C   UNL     1      -1.823  -2.209  -0.100  1.00  0.00     0.052 A 
ATOM     17  C   UNL     1      -1.865  -4.377  -1.220  1.00  0.00    -0.049 A 
ATOM     18  C   UNL     1      -2.621  -4.900  -0.164  1.00  0.00     0.007 A 
ATOM     19  C   UNL     1      -1.489  -3.027  -1.189  1.00  0.00     0.030 A 
ATOM     20  C   UNL     1      -2.996  -4.092   0.916  1.00  0.00    -0.049 A 
ATOM     21  C   UNL     1      -2.585  -2.753   0.944  1.00  0.00     0.030 A 
ATOM     22  C   UNL     1      -1.514  -5.232  -2.402  1.00  0.00     0.044 C 
ATOM     23  C   UNL     1      -3.789  -4.666   2.053  1.00  0.00     0.044 C 
ENDBRANCH   3  16
ENDBRANCH   1   2
BRANCH   1  24
ATOM     24  C   UNL     1       1.341  -1.939   1.488  1.00  0.00     0.178 C 
BRANCH  24  25
ATOM     25  C   UNL     1       1.947  -0.932   0.523  1.00  0.00     0.234 C 
ATOM     26  O   UNL     1       1.762  -1.048  -0.686  1.00  0.00    -0.274 OA
ATOM     27  N   UNL     1       2.634   0.087   1.154  1.00  0.00    -0.323 N 
ATOM     28  H   UNL     1       2.646   0.087   2.170  1.00  0.00     0.170 HD
BRANCH  27  29
ATOM     29  C   UNL     1       3.153   1.262   0.566  1.00  0.00     0.077 A 
ATOM     30  C   UNL     1       3.140   1.535  -0.802  1.00  0.00     0.029 A 
ATOM     31  C   UNL     1       3.690   2.223   1.432  1.00  0.00     0.146 A 
ATOM     32  C   UNL     1       3.646   2.750  -1.283  1.00  0.00     0.002 A 
ATOM     33  C   UNL     1       4.199   3.431   0.962  1.00  0.00     0.041 A 
ATOM     34  C   UNL     1       4.174   3.696  -0.404  1.00  0.00     0.003 A 
ATOM     35  F   UNL     1       3.711   1.982   2.753  1.00  0.00    -0.205 F 
ENDBRANCH  27  29
ENDBRANCH  24  25
ENDBRANCH   1  24
TORSDOF 5
