REMARK SMILES CCc1cc2c(cc3c(=O)n(CC(=O)N4CCN(c5cc(Cl)ccc5C)CC4)nc(CC)n32)s1
REMARK SMILES IDX 12 1 11 2 3 3 4 4 34 5 5 6 6 7 33 8 7 9 30 10 8 11 29 12
REMARK SMILES IDX 9 13 10 14 2 15 1 16 31 17 32 18 13 19 14 20 15 21 16 22
REMARK SMILES IDX 28 23 17 24 27 25 18 26 19 27 20 28 25 29 21 30 24 31 23 32
REMARK SMILES IDX 26 33 22 34
REMARK H PARENT
ROOT
ATOM      1  C   UNL     1       0.022  -0.902  -0.321  1.00  0.00     0.248 C 
ENDROOT
BRANCH   1   2
ATOM      2  N   UNL     1      -1.359  -0.753   0.112  1.00  0.00    -0.217 N 
ATOM      3  C   UNL     1      -7.334   0.286   2.111  1.00  0.00     0.007 A 
ATOM      4  C   UNL     1      -6.540   0.077   0.999  1.00  0.00     0.042 A 
ATOM      5  S   UNL     1      -6.460   0.287   3.590  1.00  0.00    -0.139 S 
ATOM      6  C   UNL     1      -5.173  -0.091   1.375  1.00  0.00     0.066 A 
ATOM      7  C   UNL     1      -4.989  -0.001   2.729  1.00  0.00     0.054 A 
ATOM      8  N   UNL     1      -3.938  -0.323   0.783  1.00  0.00    -0.290 N 
ATOM      9  C   UNL     1      -3.610  -0.175   3.015  1.00  0.00     0.053 A 
ATOM     10  C   UNL     1      -3.566  -0.505  -0.550  1.00  0.00     0.134 C 
ATOM     11  C   UNL     1      -3.004  -0.370   1.792  1.00  0.00     0.116 A 
ATOM     12  N   UNL     1      -2.328  -0.723  -0.884  1.00  0.00    -0.155 NA
ATOM     13  C   UNL     1      -1.615  -0.592   1.480  1.00  0.00     0.291 C 
ATOM     14  O   UNL     1      -0.737  -0.651   2.337  1.00  0.00    -0.265 OA
BRANCH   3  15
ATOM     15  C   UNL     1      -8.822   0.506   2.135  1.00  0.00     0.043 C 
ATOM     16  C   UNL     1      -9.583  -0.810   2.202  1.00  0.00     0.010 C 
ENDBRANCH   3  15
BRANCH  10  17
ATOM     17  C   UNL     1      -4.675  -0.442  -1.570  1.00  0.00     0.074 C 
ATOM     18  C   UNL     1      -4.193  -0.646  -2.998  1.00  0.00     0.012 C 
ENDBRANCH  10  17
ENDBRANCH   1   2
BRANCH   1  19
ATOM     19  C   UNL     1       0.732   0.458  -0.387  1.00  0.00     0.244 C 
ATOM     20  O   UNL     1       0.119   1.526  -0.309  1.00  0.00    -0.273 OA
ATOM     21  N   UNL     1       2.112   0.432  -0.568  1.00  0.00    -0.338 N 
ATOM     22  C   UNL     1       2.853   1.699  -0.555  1.00  0.00     0.141 C 
ATOM     23  C   UNL     1       2.919  -0.789  -0.694  1.00  0.00     0.141 C 
ATOM     24  C   UNL     1       4.277   1.531  -0.001  1.00  0.00     0.138 C 
ATOM     25  C   UNL     1       4.268  -0.553  -1.398  1.00  0.00     0.138 C 
ATOM     26  N   UNL     1       5.050   0.553  -0.804  1.00  0.00    -0.368 N 
BRANCH  26  27
ATOM     27  C   UNL     1       6.257   0.191  -0.180  1.00  0.00     0.041 A 
ATOM     28  C   UNL     1       6.306  -0.793   0.821  1.00  0.00     0.046 A 
ATOM     29  C   UNL     1       7.453   0.846  -0.544  1.00  0.00    -0.028 A 
ATOM     30  C   UNL     1       7.511  -1.120   1.441  1.00  0.00     0.043 A 
ATOM     31  C   UNL     1       8.658   0.511   0.097  1.00  0.00     0.007 A 
ATOM     32  C   UNL     1       8.688  -0.472   1.085  1.00  0.00     0.021 A 
ATOM     33  C   UNL     1       7.460   1.911  -1.608  1.00  0.00     0.046 C 
ATOM     34  Cl  UNL     1       7.540  -2.332   2.663  1.00  0.00    -0.084 Cl
ENDBRANCH  26  27
ENDBRANCH   1  19
TORSDOF 5
