REMARK SMILES CCc1cc2c(cc3c(=O)n(CCCC(=O)NCc4cccc(Br)c4)ncn32)s1
REMARK SMILES IDX 13 1 12 2 11 3 3 4 4 5 29 6 5 7 6 8 28 9 7 10 27 11 8 12
REMARK SMILES IDX 26 13 9 14 10 15 2 16 1 17 14 18 15 19 16 20 17 21 18 23
REMARK SMILES IDX 19 24 20 25 25 26 21 27 23 28 22 29 24 30
REMARK H PARENT 17 22
ROOT
ATOM      1  C   UNL     1       1.246   0.937   3.472  1.00  0.00     0.034 C 
ENDROOT
BRANCH   1   2
ATOM      2  C   UNL     1      -0.210   1.324   3.733  1.00  0.00     0.149 C 
BRANCH   2   3
ATOM      3  N   UNL     1      -1.126   0.813   2.720  1.00  0.00    -0.227 N 
ATOM      4  C   UNL     1      -5.057  -1.322  -1.779  1.00  0.00     0.007 A 
ATOM      5  C   UNL     1      -4.305  -0.249  -1.335  1.00  0.00     0.042 A 
ATOM      6  S   UNL     1      -4.945  -2.709  -0.763  1.00  0.00    -0.139 S 
ATOM      7  C   UNL     1      -3.630  -0.586  -0.130  1.00  0.00     0.066 A 
ATOM      8  C   UNL     1      -3.875  -1.860   0.296  1.00  0.00     0.054 A 
ATOM      9  N   UNL     1      -2.774   0.008   0.769  1.00  0.00    -0.293 N 
ATOM     10  C   UNL     1      -3.150  -2.080   1.503  1.00  0.00     0.053 A 
ATOM     11  C   UNL     1      -2.250   1.284   0.745  1.00  0.00     0.227 C 
ATOM     12  C   UNL     1      -2.487  -0.896   1.753  1.00  0.00     0.116 A 
ATOM     13  N   UNL     1      -1.444   1.693   1.679  1.00  0.00    -0.159 NA
ATOM     14  C   UNL     1      -1.602  -0.511   2.824  1.00  0.00     0.291 C 
ATOM     15  O   UNL     1      -1.296  -1.271   3.738  1.00  0.00    -0.265 OA
BRANCH   4  16
ATOM     16  C   UNL     1      -5.916  -1.381  -3.011  1.00  0.00     0.043 C 
ATOM     17  C   UNL     1      -7.330  -0.891  -2.735  1.00  0.00     0.010 C 
ENDBRANCH   4  16
ENDBRANCH   2   3
ENDBRANCH   1   2
BRANCH   1  18
ATOM     18  C   UNL     1       1.802   1.568   2.196  1.00  0.00     0.102 C 
BRANCH  18  19
ATOM     19  C   UNL     1       3.281   1.290   2.018  1.00  0.00     0.220 C 
ATOM     20  O   UNL     1       3.958   0.659   2.821  1.00  0.00    -0.275 OA
ATOM     21  N   UNL     1       3.786   1.834   0.856  1.00  0.00    -0.352 N 
ATOM     22  H   UNL     1       3.137   2.193   0.170  1.00  0.00     0.163 HD
BRANCH  21  23
ATOM     23  C   UNL     1       5.141   1.579   0.425  1.00  0.00     0.151 C 
BRANCH  23  24
ATOM     24  C   UNL     1       5.172   0.481  -0.606  1.00  0.00    -0.028 A 
ATOM     25  C   UNL     1       5.136  -0.864  -0.207  1.00  0.00     0.005 A 
ATOM     26  C   UNL     1       5.195   0.782  -1.976  1.00  0.00     0.021 A 
ATOM     27  C   UNL     1       5.138  -1.888  -1.155  1.00  0.00     0.002 A 
ATOM     28  C   UNL     1       5.196  -0.247  -2.918  1.00  0.00     0.018 A 
ATOM     29  C   UNL     1       5.170  -1.580  -2.515  1.00  0.00     0.016 A 
ATOM     30  Br  UNL     1       5.229   0.174  -4.762  1.00  0.00    -0.051 Br
ENDBRANCH  23  24
ENDBRANCH  21  23
ENDBRANCH  18  19
ENDBRANCH   1  18
TORSDOF 7
