REMARK SMILES Cc1c(NC(=O)Nc2ccc(Br)cc2F)sc2nc3n(c(=O)c12)CCC(C)CC3
REMARK SMILES IDX 1 1 2 2 3 3 16 4 17 5 18 6 19 7 20 8 21 9 22 10 23 11 4 12
REMARK SMILES IDX 5 13 6 14 7 15 8 18 9 19 14 20 10 21 13 22 11 23 15 24 12 25
REMARK SMILES IDX 24 26 25 27 29 29 28 30 26 31 27 32
REMARK H PARENT 4 16 7 17
REMARK Flexibility Score:   22.900
ROOT
ATOM      1  C   UNL     1       0.983  -1.184   2.572  1.00  0.00     0.048 C 
ATOM      2  C   UNL     1       0.633  -0.728   1.191  1.00  0.00    -0.001 A 
ATOM      3  C   UNL     1       1.523  -0.455   0.162  1.00  0.00     0.102 A 
ATOM      4  S   UNL     1       0.733   0.012  -1.270  1.00  0.00    -0.097 S 
ATOM      5  C   UNL     1      -0.800  -0.086  -0.550  1.00  0.00     0.133 A 
ATOM      6  N   UNL     1      -1.927   0.212  -1.231  1.00  0.00    -0.224 NA
ATOM      7  C   UNL     1      -3.045   0.073  -0.583  1.00  0.00     0.113 C 
ATOM      8  N   UNL     1      -3.138  -0.385   0.727  1.00  0.00    -0.296 N 
ATOM      9  C   UNL     1      -1.970  -0.619   1.485  1.00  0.00     0.262 C 
ATOM     10  O   UNL     1      -1.980  -0.893   2.684  1.00  0.00    -0.269 OA
ATOM     11  C   UNL     1      -0.723  -0.493   0.755  1.00  0.00     0.082 A 
ENDROOT
BRANCH   3  12
ATOM     12  N   UNL     1       2.901  -0.594   0.198  1.00  0.00    -0.299 N 
ATOM     13  C   UNL     1       3.813  -0.038  -0.691  1.00  0.00     0.324 C 
ATOM     14  O   UNL     1       3.574   0.768  -1.577  1.00  0.00    -0.248 OA
ATOM     15  N   UNL     1       5.075  -0.573  -0.440  1.00  0.00    -0.305 N 
ATOM     16  H   UNL     1       3.302  -0.892   1.073  1.00  0.00     0.172 HD
ATOM     17  H   UNL     1       5.055  -1.556  -0.209  1.00  0.00     0.171 HD
BRANCH  15  18
ATOM     18  C   UNL     1       6.274  -0.076  -0.996  1.00  0.00     0.078 A 
ATOM     19  C   UNL     1       7.305  -0.991  -1.243  1.00  0.00     0.030 A 
ATOM     20  C   UNL     1       6.503   1.283  -1.258  1.00  0.00     0.147 A 
ATOM     21  C   UNL     1       8.517  -0.558  -1.792  1.00  0.00     0.018 A 
ATOM     22  C   UNL     1       7.708   1.720  -1.804  1.00  0.00     0.057 A 
ATOM     23  C   UNL     1       8.709   0.793  -2.076  1.00  0.00     0.021 A 
ATOM     24  F   UNL     1       5.606   2.216  -0.909  1.00  0.00    -0.205 F 
ATOM     25  Br  UNL     1      10.350   1.373  -2.813  1.00  0.00    -0.051 Br
ENDBRANCH  15  18
ENDBRANCH   3  12
BRANCH   8  26
ATOM     26  C   UNL     1      -4.377  -0.468   1.513  1.00  0.00     0.127 C 
BRANCH  26  27
ATOM     27  C   UNL     1      -5.645  -0.881   0.774  1.00  0.00     0.025 CG0
ATOM     28  G   UNL     1      -6.343   0.283   0.057  1.00  0.00     0.000 G0
ENDBRANCH  26  27
ENDBRANCH   8  26
BRANCH   7  29
ATOM     29  C   UNL     1      -4.291   0.400  -1.399  1.00  0.00     0.076 C 
BRANCH  29  30
ATOM     30  C   UNL     1      -5.351   1.200  -0.665  1.00  0.00     0.011 C 
BRANCH  30  31
ATOM     31  C   UNL     1      -6.343   0.283   0.057  1.00  0.00    -0.012 CG0
ATOM     32  C   UNL     1      -7.216   1.100   1.013  1.00  0.00     0.008 C 
ATOM     33  G   UNL     1      -5.645  -0.881   0.774  1.00  0.00     0.000 G0
ENDBRANCH  30  31
ENDBRANCH  29  30
ENDBRANCH   7  29
TORSDOF 2
