REMARK SMILES CC1=C(c2ccc(C)c(C)c2)S(=O)(=O)N(Cc2ccc(C(=O)NCc3ccc(C)cc3)cc2)C1=O
REMARK SMILES IDX 17 1 18 2 19 3 20 4 32 5 33 6 16 7 15 8 2 9 3 10 34 11 12 12
REMARK SMILES IDX 35 13 13 14 14 15 1 16 4 17 5 18 11 19 6 20 9 21 7 22 10 23
REMARK SMILES IDX 8 24 21 25 22 26 23 27 24 29 25 30 26 31 31 32 27 33 30 34
REMARK SMILES IDX 28 35 29 36
REMARK H PARENT 23 28
ROOT
ATOM      1  C   UNL     1       0.581  -1.426   0.764  1.00  0.00    -0.027 A 
ATOM      2  C   UNL     1       0.832  -0.866  -0.497  1.00  0.00     0.006 A 
ATOM      3  C   UNL     1       1.809   0.121  -0.656  1.00  0.00     0.014 A 
ATOM      4  C   UNL     1       2.550   0.560   0.447  1.00  0.00     0.039 A 
ATOM      5  C   UNL     1       2.284   0.024   1.712  1.00  0.00     0.014 A 
ATOM      6  C   UNL     1       1.307  -0.962   1.870  1.00  0.00     0.006 A 
ENDROOT
BRANCH   1   7
ATOM      7  C   UNL     1      -0.497  -2.471   0.938  1.00  0.00     0.174 C 
BRANCH   7   8
ATOM      8  N   UNL     1      -1.805  -1.888   1.169  1.00  0.00    -0.227 N 
ATOM      9  C   UNL     1      -3.697  -0.849   2.163  1.00  0.00     0.036 C 
ATOM     10  C   UNL     1      -4.144  -1.124   0.928  1.00  0.00     0.103 C 
ATOM     11  C   UNL     1      -2.297  -1.328   2.356  1.00  0.00     0.264 C 
ATOM     12  S   UNL     1      -2.964  -1.931  -0.029  1.00  0.00     0.268 S 
ATOM     13  O   UNL     1      -1.681  -1.251   3.404  1.00  0.00    -0.268 OA
ATOM     14  O   UNL     1      -2.508  -1.098  -1.120  1.00  0.00    -0.201 OA
ATOM     15  O   UNL     1      -3.317  -3.320  -0.229  1.00  0.00    -0.201 OA
ATOM     16  C   UNL     1      -4.400  -0.175   3.283  1.00  0.00     0.052 C 
BRANCH  10  17
ATOM     17  C   UNL     1      -5.399  -0.850   0.253  1.00  0.00    -0.004 A 
ATOM     18  C   UNL     1      -6.301  -1.877  -0.032  1.00  0.00     0.010 A 
ATOM     19  C   UNL     1      -5.737   0.467  -0.085  1.00  0.00     0.013 A 
ATOM     20  C   UNL     1      -7.516  -1.594  -0.659  1.00  0.00     0.004 A 
ATOM     21  C   UNL     1      -6.957   0.765  -0.716  1.00  0.00    -0.048 A 
ATOM     22  C   UNL     1      -7.856  -0.279  -1.008  1.00  0.00    -0.048 A 
ATOM     23  C   UNL     1      -7.272   2.193  -1.073  1.00  0.00     0.044 C 
ATOM     24  C   UNL     1      -9.173  -0.014  -1.687  1.00  0.00     0.044 C 
ENDBRANCH  10  17
ENDBRANCH   7   8
ENDBRANCH   1   7
BRANCH   4  25
ATOM     25  C   UNL     1       3.599   1.612   0.328  1.00  0.00     0.251 C 
ATOM     26  O   UNL     1       3.877   2.314   1.294  1.00  0.00    -0.269 OA
ATOM     27  N   UNL     1       4.231   1.705  -0.893  1.00  0.00    -0.348 N 
ATOM     28  H   UNL     1       4.128   0.946  -1.551  1.00  0.00     0.164 HD
BRANCH  27  29
ATOM     29  C   UNL     1       5.368   2.577  -1.088  1.00  0.00     0.152 C 
BRANCH  29  30
ATOM     30  C   UNL     1       6.656   1.796  -1.031  1.00  0.00    -0.029 A 
ATOM     31  C   UNL     1       7.296   1.379  -2.205  1.00  0.00     0.006 A 
ATOM     32  C   UNL     1       7.211   1.441   0.205  1.00  0.00     0.006 A 
ATOM     33  C   UNL     1       8.478   0.636  -2.142  1.00  0.00     0.004 A 
ATOM     34  C   UNL     1       8.392   0.699   0.267  1.00  0.00     0.004 A 
ATOM     35  C   UNL     1       9.043   0.302  -0.906  1.00  0.00    -0.051 A 
ATOM     36  C   UNL     1      10.293  -0.523  -0.839  1.00  0.00     0.044 C 
ENDBRANCH  29  30
ENDBRANCH  27  29
ENDBRANCH   4  25
TORSDOF 6
