REMARK SMILES CCN1CCN(C(=O)Cn2ncc3c4ccccc4n(Cc4c(C)cc(C)cc4C)c3c2=O)CC1
REMARK SMILES IDX 10 1 11 2 12 3 13 4 14 5 15 6 16 7 17 8 18 9 19 10 20 11
REMARK SMILES IDX 31 12 32 13 33 14 9 15 7 16 3 17 4 18 35 19 5 20 34 21 6 22
REMARK SMILES IDX 8 23 2 24 1 25 21 26 22 27 23 28 29 29 25 30 28 31 26 32
REMARK SMILES IDX 24 33 30 34 27 35
REMARK H PARENT
ROOT
ATOM      1  N   UNL     1       1.242  -2.337   0.178  1.00  0.00    -0.219 N 
ATOM      2  N   UNL     1       1.009  -3.457  -0.630  1.00  0.00    -0.177 NA
ATOM      3  C   UNL     1      -0.217  -3.819  -0.869  1.00  0.00     0.144 C 
ATOM      4  C   UNL     1      -1.328  -3.094  -0.319  1.00  0.00     0.033 A 
ATOM      5  C   UNL     1      -2.723  -3.298  -0.419  1.00  0.00     0.009 A 
ATOM      6  C   UNL     1      -3.528  -4.261  -1.063  1.00  0.00     0.011 A 
ATOM      7  C   UNL     1      -4.919  -4.188  -0.949  1.00  0.00     0.001 A 
ATOM      8  C   UNL     1      -5.510  -3.173  -0.208  1.00  0.00     0.002 A 
ATOM      9  C   UNL     1      -4.733  -2.206   0.437  1.00  0.00     0.027 A 
ATOM     10  C   UNL     1      -3.334  -2.277   0.320  1.00  0.00     0.050 A 
ATOM     11  N   UNL     1      -2.323  -1.458   0.819  1.00  0.00    -0.331 N 
ATOM     12  C   UNL     1      -1.099  -1.995   0.477  1.00  0.00     0.119 A 
ATOM     13  C   UNL     1       0.241  -1.565   0.801  1.00  0.00     0.291 C 
ATOM     14  O   UNL     1       0.503  -0.634   1.559  1.00  0.00    -0.265 OA
ENDROOT
BRANCH   1  15
ATOM     15  C   UNL     1       2.628  -1.931   0.344  1.00  0.00     0.248 C 
BRANCH  15  16
ATOM     16  C   UNL     1       2.980  -0.759  -0.584  1.00  0.00     0.244 C 
ATOM     17  N   UNL     1       6.920   1.074  -0.262  1.00  0.00    -0.300 NA
ATOM     18  C   UNL     1       6.648  -0.239   0.358  1.00  0.00     0.106 C 
ATOM     19  C   UNL     1       6.083   1.192  -1.476  1.00  0.00     0.106 C 
ATOM     20  C   UNL     1       5.162  -0.528   0.648  1.00  0.00     0.135 C 
ATOM     21  C   UNL     1       4.578   0.961  -1.251  1.00  0.00     0.135 C 
ATOM     22  N   UNL     1       4.288  -0.264  -0.500  1.00  0.00    -0.339 N 
ATOM     23  O   UNL     1       2.166  -0.282  -1.380  1.00  0.00    -0.273 OA
BRANCH  17  24
ATOM     24  C   UNL     1       6.723   2.170   0.697  1.00  0.00     0.081 C 
ATOM     25  C   UNL     1       7.246   3.506   0.180  1.00  0.00     0.021 C 
ENDBRANCH  17  24
ENDBRANCH  15  16
ENDBRANCH   1  15
BRANCH  11  26
ATOM     26  C   UNL     1      -2.528  -0.265   1.651  1.00  0.00     0.159 C 
BRANCH  26  27
ATOM     27  C   UNL     1      -3.425   0.803   1.038  1.00  0.00    -0.022 A 
ATOM     28  C   UNL     1      -4.555   1.280   1.755  1.00  0.00    -0.046 A 
ATOM     29  C   UNL     1      -3.123   1.392  -0.217  1.00  0.00    -0.046 A 
ATOM     30  C   UNL     1      -5.398   2.246   1.177  1.00  0.00     0.007 A 
ATOM     31  C   UNL     1      -3.995   2.347  -0.769  1.00  0.00     0.007 A 
ATOM     32  C   UNL     1      -5.141   2.765  -0.091  1.00  0.00    -0.051 A 
ATOM     33  C   UNL     1      -4.896   0.793   3.141  1.00  0.00     0.045 C 
ATOM     34  C   UNL     1      -1.899   1.030  -1.018  1.00  0.00     0.045 C 
ATOM     35  C   UNL     1      -6.036   3.813  -0.683  1.00  0.00     0.044 C 
ENDBRANCH  26  27
ENDBRANCH  11  26
TORSDOF 5
