REMARK SMILES Cc1cc(C)c(Cn2c3ccccc3c3cnn(CC(=O)NCc4ccc(Cl)cc4)c(=O)c32)c(C)c1
REMARK SMILES IDX 19 1 18 2 8 3 9 4 33 5 10 6 14 7 31 8 15 9 11 10 13 11 32 12
REMARK SMILES IDX 16 13 12 14 17 15 7 16 6 17 2 18 3 19 36 20 4 21 34 22 1 23
REMARK SMILES IDX 5 24 35 25 20 26 21 27 22 28 23 30 24 31 25 32 30 33 26 34
REMARK SMILES IDX 29 35 27 36 28 37
REMARK H PARENT 22 29
ROOT
ATOM      1  C   UNL     1       2.201  -3.266  -0.245  1.00  0.00     0.248 C 
ENDROOT
BRANCH   1   2
ATOM      2  N   UNL     1       0.984  -2.841   0.444  1.00  0.00    -0.219 N 
ATOM      3  N   UNL     1      -1.605  -0.193   0.861  1.00  0.00    -0.331 N 
ATOM      4  C   UNL     1      -2.588  -0.336   1.840  1.00  0.00     0.050 A 
ATOM      5  C   UNL     1      -0.785  -1.300   0.880  1.00  0.00     0.119 A 
ATOM      6  C   UNL     1      -3.613   0.529   2.263  1.00  0.00     0.027 A 
ATOM      7  C   UNL     1      -2.424  -1.603   2.416  1.00  0.00     0.009 A 
ATOM      8  C   UNL     1       0.416  -1.588   0.141  1.00  0.00     0.291 C 
ATOM      9  C   UNL     1      -1.292  -2.186   1.803  1.00  0.00     0.033 A 
ATOM     10  C   UNL     1      -4.483   0.094   3.267  1.00  0.00     0.002 A 
ATOM     11  C   UNL     1      -3.315  -2.019   3.427  1.00  0.00     0.011 A 
ATOM     12  O   UNL     1       0.954  -0.804  -0.637  1.00  0.00    -0.265 OA
ATOM     13  C   UNL     1      -0.634  -3.445   2.014  1.00  0.00     0.144 C 
ATOM     14  C   UNL     1      -4.340  -1.164   3.841  1.00  0.00     0.001 A 
ATOM     15  N   UNL     1       0.449  -3.754   1.363  1.00  0.00    -0.177 NA
BRANCH   3  16
ATOM     16  C   UNL     1      -1.407   1.017   0.052  1.00  0.00     0.159 C 
BRANCH  16  17
ATOM     17  C   UNL     1      -1.505   0.843  -1.458  1.00  0.00    -0.022 A 
ATOM     18  C   UNL     1      -1.586   0.555  -4.289  1.00  0.00    -0.051 A 
ATOM     19  C   UNL     1      -2.587   0.008  -3.487  1.00  0.00     0.007 A 
ATOM     20  C   UNL     1      -0.580   1.304  -3.683  1.00  0.00     0.007 A 
ATOM     21  C   UNL     1      -2.576   0.159  -2.086  1.00  0.00    -0.046 A 
ATOM     22  C   UNL     1      -0.532   1.469  -2.288  1.00  0.00    -0.046 A 
ATOM     23  C   UNL     1      -1.637   0.409  -5.780  1.00  0.00     0.044 C 
ATOM     24  C   UNL     1      -3.736  -0.437  -1.333  1.00  0.00     0.045 C 
ATOM     25  C   UNL     1       0.585   2.318  -1.728  1.00  0.00     0.045 C 
ENDBRANCH  16  17
ENDBRANCH   3  16
ENDBRANCH   1   2
BRANCH   1  26
ATOM     26  C   UNL     1       3.466  -2.620   0.331  1.00  0.00     0.242 C 
ATOM     27  O   UNL     1       4.475  -3.270   0.598  1.00  0.00    -0.273 OA
ATOM     28  N   UNL     1       3.438  -1.246   0.404  1.00  0.00    -0.350 N 
ATOM     29  H   UNL     1       2.702  -0.764  -0.112  1.00  0.00     0.163 HD
BRANCH  28  30
ATOM     30  C   UNL     1       4.588  -0.475   0.802  1.00  0.00     0.151 C 
BRANCH  30  31
ATOM     31  C   UNL     1       4.208   0.976   0.942  1.00  0.00    -0.029 A 
ATOM     32  C   UNL     1       4.514   1.896  -0.071  1.00  0.00     0.007 A 
ATOM     33  C   UNL     1       3.479   1.410   2.061  1.00  0.00     0.007 A 
ATOM     34  C   UNL     1       4.106   3.228   0.037  1.00  0.00     0.021 A 
ATOM     35  C   UNL     1       3.070   2.740   2.167  1.00  0.00     0.021 A 
ATOM     36  C   UNL     1       3.384   3.643   1.154  1.00  0.00     0.041 A 
ATOM     37  Cl  UNL     1       2.864   5.279   1.276  1.00  0.00    -0.084 Cl
ENDBRANCH  30  31
ENDBRANCH  28  30
ENDBRANCH   1  26
TORSDOF 6
