REMARK SMILES Cc1ccc(CSc2nnc(-n3c(=O)c(C#N)cc4c(=O)n5cc(C)ccc5nc43)s2)cc1
REMARK SMILES IDX 7 1 6 2 5 3 2 4 3 5 33 6 4 7 32 8 1 9 8 10 9 11 31 12 10 13
REMARK SMILES IDX 11 14 12 15 13 16 30 17 14 18 15 19 29 20 19 21 16 22 18 23
REMARK SMILES IDX 28 24 20 25 17 26 27 27 22 28 21 29 26 30 23 31 24 32 25 33
REMARK H PARENT
ROOT
ATOM      1  S   UNL     1       3.827   1.948  -2.619  1.00  0.00    -0.089 SA
ENDROOT
BRANCH   1   2
ATOM      2  C   UNL     1       4.785   0.712  -1.690  1.00  0.00     0.113 C 
BRANCH   2   3
ATOM      3  C   UNL     1       4.169   0.382  -0.351  1.00  0.00    -0.038 A 
ATOM      4  C   UNL     1       2.977  -0.218   2.135  1.00  0.00    -0.051 A 
ATOM      5  C   UNL     1       3.735   0.946   1.974  1.00  0.00     0.004 A 
ATOM      6  C   UNL     1       2.830  -1.088   1.049  1.00  0.00     0.004 A 
ATOM      7  C   UNL     1       4.320   1.248   0.741  1.00  0.00     0.005 A 
ATOM      8  C   UNL     1       3.417  -0.789  -0.183  1.00  0.00     0.005 A 
ATOM      9  C   UNL     1       2.383  -0.560   3.469  1.00  0.00     0.044 C 
ENDBRANCH   2   3
ENDBRANCH   1   2
BRANCH   1  10
ATOM     10  C   UNL     1       2.397   1.004  -2.951  1.00  0.00     0.176 A 
ATOM     11  N   UNL     1       2.455  -0.174  -3.530  1.00  0.00    -0.130 NA
ATOM     12  S   UNL     1       0.826   1.509  -2.517  1.00  0.00    -0.068 S 
ATOM     13  N   UNL     1       1.206  -0.760  -3.621  1.00  0.00    -0.118 NA
ATOM     14  C   UNL     1       0.269  -0.039  -3.037  1.00  0.00     0.221 A 
BRANCH  14  15
ATOM     15  N   UNL     1      -1.085  -0.360  -2.939  1.00  0.00    -0.232 N 
ATOM     16  C   UNL     1      -1.656  -0.959  -4.067  1.00  0.00     0.276 C 
ATOM     17  C   UNL     1      -1.753  -0.207  -1.717  1.00  0.00     0.157 C 
ATOM     18  O   UNL     1      -1.097  -1.131  -5.148  1.00  0.00    -0.267 OA
ATOM     19  C   UNL     1      -3.094  -1.346  -3.940  1.00  0.00     0.119 C 
ATOM     20  N   UNL     1      -1.053   0.243  -0.630  1.00  0.00    -0.211 NA
ATOM     21  C   UNL     1      -3.044  -0.575  -1.637  1.00  0.00     0.085 C 
ATOM     22  C   UNL     1      -3.767  -1.915  -5.054  1.00  0.00     0.105 C 
ATOM     23  C   UNL     1      -3.730  -1.134  -2.780  1.00  0.00     0.043 C 
ATOM     24  C   UNL     1      -1.655   0.359   0.510  1.00  0.00     0.142 C 
ATOM     25  C   UNL     1      -3.748  -0.431  -0.332  1.00  0.00     0.267 C 
ATOM     26  N   UNL     1      -4.378  -2.382  -5.923  1.00  0.00    -0.192 NA
ATOM     27  C   UNL     1      -0.880   0.860   1.677  1.00  0.00     0.048 C 
ATOM     28  N   UNL     1      -2.985   0.046   0.721  1.00  0.00    -0.267 N 
ATOM     29  O   UNL     1      -4.938  -0.738  -0.251  1.00  0.00    -0.268 OA
ATOM     30  C   UNL     1      -1.478   0.990   2.866  1.00  0.00     0.009 C 
ATOM     31  C   UNL     1      -3.566   0.198   1.976  1.00  0.00     0.100 C 
ATOM     32  C   UNL     1      -2.874   0.650   3.034  1.00  0.00    -0.034 C 
ATOM     33  C   UNL     1      -3.474   0.822   4.396  1.00  0.00     0.046 C 
ENDBRANCH  14  15
ENDBRANCH   1  10
TORSDOF 4
