REMARK SMILES Cc1cc(C)n(-c2nc(N(C)C)nc(N3CCOCC3)n2)n1
REMARK SMILES IDX 7 1 8 2 9 3 13 4 14 5 21 6 6 7 2 8 3 9 22 10 4 11 1 12 5 13
REMARK SMILES IDX 10 14 11 15 12 16 15 17 16 18 20 19 17 20 19 21 18 22
REMARK H PARENT
ROOT
ATOM      1  C   UNL     1       0.956  -0.430  -0.072  1.00  0.00     0.257 A 
ATOM      2  N   UNL     1       0.481  -1.603  -0.497  1.00  0.00    -0.175 NA
ATOM      3  C   UNL     1      -0.826  -1.781  -0.409  1.00  0.00     0.231 A 
ATOM      4  N   UNL     1      -1.639  -0.843   0.067  1.00  0.00    -0.177 NA
ATOM      5  C   UNL     1      -1.110   0.311   0.459  1.00  0.00     0.232 A 
ATOM      6  N   UNL     1       0.193   0.553   0.412  1.00  0.00    -0.175 NA
ENDROOT
BRANCH   1   7
ATOM      7  N   UNL     1       2.384  -0.226  -0.142  1.00  0.00    -0.203 N 
ATOM      8  C   UNL     1       4.440  -0.710  -0.555  1.00  0.00     0.060 A 
ATOM      9  C   UNL     1       4.447   0.593  -0.032  1.00  0.00     0.049 A 
ATOM     10  N   UNL     1       3.206  -1.211  -0.622  1.00  0.00    -0.170 NA
ATOM     11  C   UNL     1       3.127   0.895   0.232  1.00  0.00     0.045 A 
ATOM     12  C   UNL     1       5.596  -1.522  -1.006  1.00  0.00     0.069 C 
ATOM     13  C   UNL     1       2.552   2.140   0.798  1.00  0.00     0.067 C 
ENDBRANCH   1   7
BRANCH   3  14
ATOM     14  N   UNL     1      -1.376  -2.986  -0.859  1.00  0.00    -0.347 N 
ATOM     15  C   UNL     1      -2.660  -3.321  -0.264  1.00  0.00     0.146 C 
ATOM     16  C   UNL     1      -0.415  -4.071  -0.998  1.00  0.00     0.146 C 
ENDBRANCH   3  14
BRANCH   5  17
ATOM     17  N   UNL     1      -1.959   1.294   0.982  1.00  0.00    -0.336 N 
ATOM     18  C   UNL     1      -1.427   2.663   0.895  1.00  0.00     0.148 C 
ATOM     19  C   UNL     1      -3.356   1.171   0.528  1.00  0.00     0.148 C 
ATOM     20  C   UNL     1      -2.394   3.651   1.567  1.00  0.00     0.181 C 
ATOM     21  C   UNL     1      -4.232   2.229   1.216  1.00  0.00     0.181 C 
ATOM     22  O   UNL     1      -3.715   3.554   1.015  1.00  0.00    -0.378 OA
ENDBRANCH   5  17
TORSDOF 3
