REMARK SMILES CCc1cccc(C)c1NC(=O)c1ccc2c(c1)CCN2S(=O)(=O)c1ccc(Cl)cc1
REMARK SMILES IDX 13 1 14 2 15 3 16 4 17 5 18 6 19 7 20 8 21 9 11 10 10 11
REMARK SMILES IDX 12 12 9 14 3 15 4 16 5 17 7 18 6 19 8 20 2 21 1 22 22 23
REMARK SMILES IDX 23 24 24 25 25 26 26 27 31 28 27 29 30 30 28 31 29 32
REMARK H PARENT 10 13
ROOT
ATOM      1  C   UNL     1      -0.633   0.381   1.121  1.00  0.00     0.040 A 
ATOM      2  C   UNL     1       0.382   1.184   1.676  1.00  0.00     0.016 A 
ATOM      3  C   UNL     1       1.703   1.087   1.222  1.00  0.00     0.028 A 
ATOM      4  C   UNL     1       1.999   0.150   0.247  1.00  0.00     0.055 A 
ATOM      5  C   UNL     1       0.993  -0.634  -0.318  1.00  0.00    -0.021 A 
ATOM      6  C   UNL     1      -0.325  -0.542   0.110  1.00  0.00     0.019 A 
ATOM      7  C   UNL     1       1.530  -1.483  -1.423  1.00  0.00     0.060 C 
ATOM      8  C   UNL     1       3.048  -1.329  -1.242  1.00  0.00     0.140 C 
ATOM      9  N   UNL     1       3.247  -0.087  -0.420  1.00  0.00    -0.266 N 
ENDROOT
BRANCH   1  10
ATOM     10  C   UNL     1      -2.025   0.534   1.637  1.00  0.00     0.255 C 
ATOM     11  N   UNL     1      -3.015   0.322   0.694  1.00  0.00    -0.321 N 
ATOM     12  O   UNL     1      -2.183   0.895   2.796  1.00  0.00    -0.269 OA
ATOM     13  H   UNL     1      -2.716   0.463  -0.260  1.00  0.00     0.170 HD
BRANCH  11  14
ATOM     14  C   UNL     1      -4.413   0.383   0.920  1.00  0.00     0.047 A 
ATOM     15  C   UNL     1      -5.219   0.966  -0.093  1.00  0.00    -0.024 A 
ATOM     16  C   UNL     1      -6.612   1.046   0.089  1.00  0.00     0.006 A 
ATOM     17  C   UNL     1      -7.209   0.566   1.247  1.00  0.00     0.001 A 
ATOM     18  C   UNL     1      -5.032  -0.166   2.065  1.00  0.00    -0.027 A 
ATOM     19  C   UNL     1      -6.425  -0.035   2.224  1.00  0.00     0.005 A 
ATOM     20  C   UNL     1      -4.311  -0.942   3.135  1.00  0.00     0.046 C 
BRANCH  15  21
ATOM     21  C   UNL     1      -4.660   1.543  -1.377  1.00  0.00     0.034 C 
ATOM     22  C   UNL     1      -4.485   0.479  -2.452  1.00  0.00     0.009 C 
ENDBRANCH  15  21
ENDBRANCH  11  14
ENDBRANCH   1  10
BRANCH   9  23
ATOM     23  S   UNL     1       4.660  -0.043   0.533  1.00  0.00     0.264 S 
ATOM     24  O   UNL     1       4.693  -1.239   1.350  1.00  0.00    -0.201 OA
ATOM     25  O   UNL     1       4.817   1.272   1.120  1.00  0.00    -0.201 OA
BRANCH  23  26
ATOM     26  C   UNL     1       5.935  -0.193  -0.703  1.00  0.00     0.088 A 
ATOM     27  C   UNL     1       6.152   0.873  -1.583  1.00  0.00     0.024 A 
ATOM     28  C   UNL     1       6.714  -1.353  -0.774  1.00  0.00     0.024 A 
ATOM     29  C   UNL     1       7.148   0.768  -2.555  1.00  0.00     0.022 A 
ATOM     30  C   UNL     1       7.709  -1.450  -1.749  1.00  0.00     0.022 A 
ATOM     31  C   UNL     1       7.920  -0.392  -2.636  1.00  0.00     0.041 A 
ATOM     32  Cl  UNL     1       9.144  -0.520  -3.837  1.00  0.00    -0.084 Cl
ENDBRANCH  23  26
ENDBRANCH   9  23
TORSDOF 5
