REMARK SMILES Cc1cc(C)c(C(=O)Nc2ccccc2)c(SCC(=O)Nc2ccc(Br)cc2C)n1
REMARK SMILES IDX 17 1 16 2 2 3 3 4 30 5 4 6 6 7 1 8 5 9 7 10 8 11 9 12 10 14
REMARK SMILES IDX 11 15 15 16 12 17 14 18 13 19 18 20 19 21 20 22 21 23 22 25
REMARK SMILES IDX 23 26 28 27 24 28 27 29 25 30 29 31 26 32
REMARK H PARENT 9 13 21 24
ROOT
ATOM      1  S   UNL     1       0.334  -0.713  -3.114  1.00  0.00    -0.096 SA
ENDROOT
BRANCH   1   2
ATOM      2  C   UNL     1       0.346  -1.681  -1.615  1.00  0.00     0.110 A 
ATOM      3  C   UNL     1      -0.905  -3.190  -0.359  1.00  0.00     0.039 A 
ATOM      4  C   UNL     1       0.067  -3.234   0.635  1.00  0.00     0.027 A 
ATOM      5  N   UNL     1      -0.783  -2.424  -1.469  1.00  0.00    -0.246 NA
ATOM      6  C   UNL     1       1.227  -2.466   0.495  1.00  0.00    -0.034 A 
ATOM      7  C   UNL     1       1.356  -1.667  -0.653  1.00  0.00     0.075 A 
ATOM      8  C   UNL     1      -2.153  -4.011  -0.222  1.00  0.00     0.067 C 
ATOM      9  C   UNL     1       2.282  -2.498   1.563  1.00  0.00     0.045 C 
BRANCH   7  10
ATOM     10  C   UNL     1       2.542  -0.809  -0.811  1.00  0.00     0.258 C 
ATOM     11  O   UNL     1       3.496  -1.253  -1.433  1.00  0.00    -0.269 OA
ATOM     12  N   UNL     1       2.417   0.415  -0.184  1.00  0.00    -0.322 N 
ATOM     13  H   UNL     1       1.515   0.625   0.249  1.00  0.00     0.170 HD
BRANCH  12  14
ATOM     14  C   UNL     1       3.371   1.450  -0.129  1.00  0.00     0.041 A 
ATOM     15  C   UNL     1       2.991   2.632   0.519  1.00  0.00     0.026 A 
ATOM     16  C   UNL     1       4.651   1.360  -0.676  1.00  0.00     0.026 A 
ATOM     17  C   UNL     1       3.876   3.708   0.616  1.00  0.00     0.002 A 
ATOM     18  C   UNL     1       5.538   2.438  -0.579  1.00  0.00     0.002 A 
ATOM     19  C   UNL     1       5.152   3.610   0.066  1.00  0.00     0.000 A 
ENDBRANCH  12  14
ENDBRANCH   7  10
ENDBRANCH   1   2
BRANCH   1  20
ATOM     20  C   UNL     1      -0.019   0.952  -2.467  1.00  0.00     0.176 C 
BRANCH  20  21
ATOM     21  C   UNL     1      -0.837   0.931  -1.187  1.00  0.00     0.234 C 
ATOM     22  O   UNL     1      -0.310   1.193  -0.106  1.00  0.00    -0.274 OA
ATOM     23  N   UNL     1      -2.147   0.532  -1.387  1.00  0.00    -0.325 N 
ATOM     24  H   UNL     1      -2.247  -0.110  -2.171  1.00  0.00     0.169 HD
BRANCH  23  25
ATOM     25  C   UNL     1      -3.137   0.414  -0.386  1.00  0.00     0.044 A 
ATOM     26  C   UNL     1      -4.004  -0.684  -0.521  1.00  0.00     0.027 A 
ATOM     27  C   UNL     1      -3.335   1.321   0.671  1.00  0.00    -0.026 A 
ATOM     28  C   UNL     1      -5.001  -0.938   0.421  1.00  0.00     0.018 A 
ATOM     29  C   UNL     1      -4.332   1.039   1.628  1.00  0.00     0.021 A 
ATOM     30  C   UNL     1      -5.151  -0.081   1.502  1.00  0.00     0.018 A 
ATOM     31  C   UNL     1      -2.577   2.609   0.840  1.00  0.00     0.046 C 
ATOM     32  Br  UNL     1      -6.486  -0.422   2.795  1.00  0.00    -0.051 Br
ENDBRANCH  23  25
ENDBRANCH  20  21
ENDBRANCH   1  20
TORSDOF 6
