REMARK SMILES COC1C(O)C(O)C(O)C(O)C1O
REMARK SMILES IDX 3 1 4 2 6 3 8 4 10 5 12 6 2 7 1 8 5 9 13 11 7 13 11 15 9 17
REMARK H PARENT 5 10 13 12 7 14 11 16 9 18
ROOT
ATOM      1  C   UNL     1      -0.971   0.769   0.028  1.00  0.00     0.180 C 
ATOM      2  C   UNL     1       0.296   1.645  -0.122  1.00  0.00     0.177 C 
ATOM      3  C   UNL     1       1.571   0.843   0.193  1.00  0.00     0.177 C 
ATOM      4  C   UNL     1       1.677  -0.434  -0.659  1.00  0.00     0.177 C 
ATOM      5  C   UNL     1       0.404  -1.298  -0.628  1.00  0.00     0.177 C 
ATOM      6  C   UNL     1      -0.868  -0.475  -0.891  1.00  0.00     0.177 C 
ENDROOT
BRANCH   1   7
ATOM      7  O   UNL     1      -1.104   0.439   1.418  1.00  0.00    -0.376 OA
ATOM      8  C   UNL     1      -2.391  -0.057   1.764  1.00  0.00     0.195 C 
ENDBRANCH   1   7
BRANCH   2   9
ATOM      9  O   UNL     1       0.389   2.220  -1.430  1.00  0.00    -0.387 OA
ATOM     10  H   UNL     1      -0.061   1.618  -2.061  1.00  0.00     0.211 HD
ENDBRANCH   2   9
BRANCH   6  11
ATOM     11  O   UNL     1      -0.880  -0.034  -2.260  1.00  0.00    -0.387 OA
ATOM     12  H   UNL     1      -1.055  -0.822  -2.810  1.00  0.00     0.211 HD
ENDBRANCH   6  11
BRANCH   3  13
ATOM     13  O   UNL     1       1.656   0.471   1.580  1.00  0.00    -0.387 OA
ATOM     14  H   UNL     1       0.755   0.190   1.857  1.00  0.00     0.211 HD
ENDBRANCH   3  13
BRANCH   5  15
ATOM     15  O   UNL     1       0.300  -1.993   0.618  1.00  0.00    -0.387 OA
ATOM     16  H   UNL     1       1.193  -2.360   0.778  1.00  0.00     0.211 HD
ENDBRANCH   5  15
BRANCH   4  17
ATOM     17  O   UNL     1       2.771  -1.240  -0.177  1.00  0.00    -0.387 OA
ATOM     18  H   UNL     1       2.977  -0.888   0.716  1.00  0.00     0.211 HD
ENDBRANCH   4  17
TORSDOF 6
