REMARK SMILES O=C(Nc1ccc(Br)cc1)c1cccc(-n2cnnn2)c1
REMARK SMILES IDX 1 1 2 2 3 3 11 5 12 6 21 7 13 8 15 9 14 10 16 11 17 12 20 13
REMARK SMILES IDX 18 14 19 15 4 16 5 17 10 18 6 19 9 20 7 21 8 22
REMARK H PARENT 3 4
ROOT
ATOM      1  O   UNL     1      -1.218  -0.655   2.222  1.00  0.00    -0.269 OA
ATOM      2  C   UNL     1      -0.662  -0.220   1.220  1.00  0.00     0.255 C 
ATOM      3  N   UNL     1      -1.270   0.193   0.047  1.00  0.00    -0.322 N 
ATOM      4  H   UNL     1      -0.685   0.645  -0.644  1.00  0.00     0.170 HD
ENDROOT
BRANCH   2   5
ATOM      5  C   UNL     1       0.822  -0.073   1.252  1.00  0.00     0.042 A 
ATOM      6  C   UNL     1       1.434   0.219   2.476  1.00  0.00     0.014 A 
ATOM      7  C   UNL     1       1.612  -0.253   0.108  1.00  0.00     0.042 A 
ATOM      8  C   UNL     1       2.820   0.359   2.556  1.00  0.00     0.003 A 
ATOM      9  C   UNL     1       3.009  -0.109   0.186  1.00  0.00     0.069 A 
ATOM     10  C   UNL     1       3.610   0.200   1.415  1.00  0.00     0.028 A 
BRANCH   9  11
ATOM     11  N   UNL     1       3.790  -0.282  -0.982  1.00  0.00    -0.201 N 
ATOM     12  C   UNL     1       5.150  -0.215  -1.147  1.00  0.00     0.252 A 
ATOM     13  N   UNL     1       3.238  -0.541  -2.190  1.00  0.00    -0.040 NA
ATOM     14  N   UNL     1       5.446  -0.422  -2.410  1.00  0.00    -0.117 NA
ATOM     15  N   UNL     1       4.249  -0.624  -3.044  1.00  0.00    -0.024 NA
ENDBRANCH   9  11
ENDBRANCH   2   5
BRANCH   3  16
ATOM     16  C   UNL     1      -2.643   0.132  -0.271  1.00  0.00     0.041 A 
ATOM     17  C   UNL     1      -3.038   0.678  -1.501  1.00  0.00     0.027 A 
ATOM     18  C   UNL     1      -3.612  -0.443   0.554  1.00  0.00     0.027 A 
ATOM     19  C   UNL     1      -4.380   0.655  -1.895  1.00  0.00     0.018 A 
ATOM     20  C   UNL     1      -4.956  -0.468   0.162  1.00  0.00     0.018 A 
ATOM     21  C   UNL     1      -5.334   0.082  -1.060  1.00  0.00     0.018 A 
ATOM     22  Br  UNL     1      -7.148   0.048  -1.587  1.00  0.00    -0.051 Br
ENDBRANCH   3  16
TORSDOF 3
