REMARK SMILES Cc1ccc(NC(=O)c2ccc(CNS(=O)(=O)c3ccc4c(c3)C(C)(C)C(=O)N4C)cc2)cc1C
REMARK SMILES IDX 13 1 12 2 9 3 10 4 32 5 11 6 31 7 7 8 6 9 8 10 5 12 2 13
REMARK SMILES IDX 3 14 34 15 4 16 33 17 1 18 35 19 14 20 15 22 16 23 17 24
REMARK SMILES IDX 18 25 19 26 23 27 20 28 22 29 21 30 24 31 29 32 27 33 28 34
REMARK SMILES IDX 25 35 26 36 30 37
REMARK H PARENT 6 11 14 21
ROOT
ATOM      1  C   UNL     1      -1.438   1.990   0.312  1.00  0.00     0.134 C 
ENDROOT
BRANCH   1   2
ATOM      2  C   UNL     1       0.045   1.717   0.391  1.00  0.00    -0.033 A 
ATOM      3  C   UNL     1       2.811   1.233   0.503  1.00  0.00     0.040 A 
ATOM      4  C   UNL     1       1.906   0.180   0.686  1.00  0.00     0.014 A 
ATOM      5  C   UNL     1       2.333   2.528   0.281  1.00  0.00     0.014 A 
ATOM      6  C   UNL     1       0.530   0.422   0.623  1.00  0.00     0.006 A 
ATOM      7  C   UNL     1       0.959   2.767   0.215  1.00  0.00     0.006 A 
BRANCH   3   8
ATOM      8  C   UNL     1       4.284   1.019   0.572  1.00  0.00     0.255 C 
ATOM      9  N   UNL     1       4.722  -0.165   0.006  1.00  0.00    -0.322 N 
ATOM     10  O   UNL     1       4.972   1.896   1.080  1.00  0.00    -0.269 OA
ATOM     11  H   UNL     1       4.037  -0.714  -0.495  1.00  0.00     0.170 HD
BRANCH   9  12
ATOM     12  C   UNL     1       6.044  -0.656  -0.040  1.00  0.00     0.041 A 
ATOM     13  C   UNL     1       8.632  -1.781  -0.214  1.00  0.00    -0.048 A 
ATOM     14  C   UNL     1       7.538  -2.398  -0.834  1.00  0.00     0.006 A 
ATOM     15  C   UNL     1       8.425  -0.587   0.504  1.00  0.00    -0.046 A 
ATOM     16  C   UNL     1       6.259  -1.843  -0.746  1.00  0.00     0.026 A 
ATOM     17  C   UNL     1       7.130  -0.040   0.583  1.00  0.00     0.029 A 
ATOM     18  C   UNL     1       9.996  -2.403  -0.328  1.00  0.00     0.044 C 
ATOM     19  C   UNL     1       9.562   0.120   1.192  1.00  0.00     0.044 C 
ENDBRANCH   9  12
ENDBRANCH   3   8
ENDBRANCH   1   2
BRANCH   1  20
ATOM     20  N   UNL     1      -1.847   2.223  -1.064  1.00  0.00    -0.207 NA
ATOM     21  H   UNL     1      -1.489   1.619  -1.800  1.00  0.00     0.141 HD
BRANCH  20  22
ATOM     22  S   UNL     1      -3.303   2.971  -1.382  1.00  0.00     0.240 S 
ATOM     23  O   UNL     1      -3.492   2.921  -2.815  1.00  0.00    -0.207 OA
ATOM     24  O   UNL     1      -3.339   4.215  -0.646  1.00  0.00    -0.207 OA
BRANCH  22  25
ATOM     25  C   UNL     1      -4.477   1.856  -0.646  1.00  0.00     0.082 A 
ATOM     26  C   UNL     1      -5.066   2.180   0.592  1.00  0.00     0.024 A 
ATOM     27  C   UNL     1      -4.817   0.683  -1.331  1.00  0.00     0.028 A 
ATOM     28  C   UNL     1      -5.993   1.314   1.177  1.00  0.00     0.028 A 
ATOM     29  C   UNL     1      -5.738  -0.166  -0.737  1.00  0.00    -0.008 A 
ATOM     30  C   UNL     1      -6.311   0.150   0.498  1.00  0.00     0.048 A 
ATOM     31  C   UNL     1      -6.291  -1.485  -1.229  1.00  0.00     0.071 C 
ATOM     32  N   UNL     1      -7.199  -0.861   0.874  1.00  0.00    -0.314 N 
ATOM     33  C   UNL     1      -7.256  -1.877  -0.083  1.00  0.00     0.236 C 
ATOM     34  O   UNL     1      -7.934  -2.892  -0.035  1.00  0.00    -0.274 OA
ATOM     35  C   UNL     1      -5.197  -2.543  -1.363  1.00  0.00     0.027 C 
ATOM     36  C   UNL     1      -7.078  -1.320  -2.529  1.00  0.00     0.027 C 
ATOM     37  C   UNL     1      -7.967  -0.851   2.091  1.00  0.00     0.153 C 
ENDBRANCH  22  25
ENDBRANCH  20  22
ENDBRANCH   1  20
TORSDOF 6
