REMARK SMILES Cc1ccc(Nc2nnc(-c3ccc(C)c(S(=O)(=O)N4CCOCC4)c3)c3ccccc23)c(C)c1
REMARK SMILES IDX 7 1 8 2 9 3 10 4 27 5 28 6 29 7 30 8 31 9 32 10 6 11 5 13
REMARK SMILES IDX 2 14 3 15 35 16 4 17 33 18 1 19 34 20 11 21 12 22 26 23
REMARK SMILES IDX 13 24 16 25 14 26 15 27 17 28 18 29 19 30 20 31 21 32 25 33
REMARK SMILES IDX 22 34 24 35 23 36
REMARK H PARENT 6 12
ROOT
ATOM      1  C   UNL     1       2.682  -0.268  -0.387  1.00  0.00     0.161 A 
ATOM      2  N   UNL     1       2.015   0.423   0.561  1.00  0.00    -0.131 NA
ATOM      3  N   UNL     1       0.812  -0.014   1.041  1.00  0.00    -0.148 NA
ATOM      4  C   UNL     1       0.263  -1.153   0.567  1.00  0.00     0.101 A 
ATOM      5  C   UNL     1       0.912  -1.939  -0.404  1.00  0.00     0.014 A 
ATOM      6  C   UNL     1       0.391  -3.161  -0.903  1.00  0.00     0.011 A 
ATOM      7  C   UNL     1       1.072  -3.913  -1.860  1.00  0.00     0.001 A 
ATOM      8  C   UNL     1       2.297  -3.471  -2.335  1.00  0.00     0.001 A 
ATOM      9  C   UNL     1       2.835  -2.277  -1.855  1.00  0.00     0.013 A 
ATOM     10  C   UNL     1       2.160  -1.483  -0.892  1.00  0.00     0.029 A 
ENDROOT
BRANCH   1  11
ATOM     11  N   UNL     1       3.909   0.228  -0.910  1.00  0.00    -0.338 N 
ATOM     12  H   UNL     1       3.811   0.295  -1.916  1.00  0.00     0.168 HD
BRANCH  11  13
ATOM     13  C   UNL     1       4.734   1.259  -0.395  1.00  0.00     0.043 A 
ATOM     14  C   UNL     1       6.507   3.210   0.661  1.00  0.00    -0.051 A 
ATOM     15  C   UNL     1       5.654   2.498   1.502  1.00  0.00     0.005 A 
ATOM     16  C   UNL     1       6.478   2.939  -0.711  1.00  0.00     0.009 A 
ATOM     17  C   UNL     1       4.795   1.525   0.981  1.00  0.00     0.026 A 
ATOM     18  C   UNL     1       5.621   1.958  -1.246  1.00  0.00    -0.027 A 
ATOM     19  C   UNL     1       7.402   4.280   1.209  1.00  0.00     0.044 C 
ATOM     20  C   UNL     1       5.669   1.702  -2.729  1.00  0.00     0.046 C 
ENDBRANCH  11  13
ENDBRANCH   1  11
BRANCH   4  21
ATOM     21  C   UNL     1      -1.046  -1.465   1.156  1.00  0.00     0.004 A 
ATOM     22  C   UNL     1      -1.162  -1.778   2.516  1.00  0.00     0.011 A 
ATOM     23  C   UNL     1      -2.218  -1.426   0.389  1.00  0.00     0.032 A 
ATOM     24  C   UNL     1      -2.406  -2.072   3.085  1.00  0.00     0.005 A 
ATOM     25  C   UNL     1      -3.474  -1.708   0.959  1.00  0.00     0.086 A 
ATOM     26  C   UNL     1      -3.582  -2.053   2.317  1.00  0.00    -0.031 A 
ATOM     27  C   UNL     1      -4.878  -2.393   2.996  1.00  0.00     0.046 C 
BRANCH  25  28
ATOM     28  S   UNL     1      -4.867  -1.592  -0.151  1.00  0.00     0.243 S 
ATOM     29  O   UNL     1      -6.113  -1.667   0.579  1.00  0.00    -0.207 OA
ATOM     30  O   UNL     1      -4.596  -2.489  -1.254  1.00  0.00    -0.207 OA
BRANCH  28  31
ATOM     31  N   UNL     1      -4.743   0.011  -0.735  1.00  0.00    -0.193 NA
ATOM     32  C   UNL     1      -4.834   1.080   0.318  1.00  0.00     0.131 C 
ATOM     33  C   UNL     1      -5.648   0.297  -1.900  1.00  0.00     0.131 C 
ATOM     34  C   UNL     1      -5.189   2.428  -0.316  1.00  0.00     0.177 C 
ATOM     35  C   UNL     1      -6.850   1.142  -1.470  1.00  0.00     0.177 C 
ATOM     36  O   UNL     1      -6.476   2.427  -0.950  1.00  0.00    -0.379 OA
ENDBRANCH  28  31
ENDBRANCH  25  28
ENDBRANCH   4  21
TORSDOF 5
