REMARK SMILES Cc1ccc(-c2nnc(Nc3ccc(Cl)cc3)c3ccccc23)cc1S(=O)(=O)N1CCOCC1
REMARK SMILES IDX 6 1 7 2 8 3 9 4 18 5 19 6 20 7 21 8 22 9 23 10 5 11 2 12
REMARK SMILES IDX 3 13 25 14 4 15 24 16 1 17 26 18 27 19 28 20 29 21 30 22
REMARK SMILES IDX 34 23 31 24 33 25 32 26 10 27 11 29 12 30 17 31 13 32 16 33
REMARK SMILES IDX 14 34 15 35
REMARK H PARENT 10 28
ROOT
ATOM      1  C   UNL     1       0.601  -1.074   0.641  1.00  0.00     0.101 A 
ATOM      2  N   UNL     1       0.851  -0.414  -0.512  1.00  0.00    -0.148 NA
ATOM      3  N   UNL     1       2.128  -0.322  -0.988  1.00  0.00    -0.131 NA
ATOM      4  C   UNL     1       3.162  -0.880  -0.324  1.00  0.00     0.161 A 
ATOM      5  C   UNL     1       2.953  -1.550   0.905  1.00  0.00     0.029 A 
ATOM      6  C   UNL     1       4.005  -2.110   1.674  1.00  0.00     0.013 A 
ATOM      7  C   UNL     1       3.769  -2.757   2.887  1.00  0.00     0.001 A 
ATOM      8  C   UNL     1       2.475  -2.855   3.373  1.00  0.00     0.001 A 
ATOM      9  C   UNL     1       1.420  -2.305   2.644  1.00  0.00     0.011 A 
ATOM     10  C   UNL     1       1.632  -1.651   1.404  1.00  0.00     0.014 A 
ENDROOT
BRANCH   1  11
ATOM     11  C   UNL     1      -0.826  -1.107   0.992  1.00  0.00     0.004 A 
ATOM     12  C   UNL     1      -3.606  -1.124   1.613  1.00  0.00    -0.031 A 
ATOM     13  C   UNL     1      -2.910  -2.314   1.338  1.00  0.00     0.005 A 
ATOM     14  C   UNL     1      -2.893   0.089   1.548  1.00  0.00     0.086 A 
ATOM     15  C   UNL     1      -1.549  -2.305   1.017  1.00  0.00     0.011 A 
ATOM     16  C   UNL     1      -1.514   0.082   1.270  1.00  0.00     0.032 A 
ATOM     17  C   UNL     1      -5.058  -1.234   1.985  1.00  0.00     0.046 C 
BRANCH  14  18
ATOM     18  S   UNL     1      -3.634   1.696   1.852  1.00  0.00     0.243 S 
ATOM     19  O   UNL     1      -4.899   1.511   2.529  1.00  0.00    -0.207 OA
ATOM     20  O   UNL     1      -2.607   2.532   2.439  1.00  0.00    -0.207 OA
BRANCH  18  21
ATOM     21  N   UNL     1      -3.960   2.283   0.300  1.00  0.00    -0.193 NA
ATOM     22  C   UNL     1      -2.828   2.742  -0.554  1.00  0.00     0.131 C 
ATOM     23  C   UNL     1      -5.060   1.639  -0.466  1.00  0.00     0.131 C 
ATOM     24  C   UNL     1      -2.757   1.930  -1.852  1.00  0.00     0.177 C 
ATOM     25  C   UNL     1      -5.138   2.246  -1.870  1.00  0.00     0.177 C 
ATOM     26  O   UNL     1      -3.952   2.016  -2.644  1.00  0.00    -0.379 OA
ENDBRANCH  18  21
ENDBRANCH  14  18
ENDBRANCH   1  11
BRANCH   4  27
ATOM     27  N   UNL     1       4.477  -0.811  -0.863  1.00  0.00    -0.338 N 
ATOM     28  H   UNL     1       4.850  -1.753  -0.922  1.00  0.00     0.168 HD
BRANCH  27  29
ATOM     29  C   UNL     1       4.944  -0.000  -1.922  1.00  0.00     0.040 A 
ATOM     30  C   UNL     1       4.400   1.258  -2.209  1.00  0.00     0.027 A 
ATOM     31  C   UNL     1       6.082  -0.406  -2.637  1.00  0.00     0.027 A 
ATOM     32  C   UNL     1       4.934   2.062  -3.223  1.00  0.00     0.022 A 
ATOM     33  C   UNL     1       6.621   0.393  -3.652  1.00  0.00     0.022 A 
ATOM     34  C   UNL     1       6.040   1.623  -3.944  1.00  0.00     0.041 A 
ATOM     35  Cl  UNL     1       6.701   2.609  -5.188  1.00  0.00    -0.084 Cl
ENDBRANCH  27  29
ENDBRANCH   4  27
TORSDOF 5
