REMARK SMILES Cc1ccc(C)c(-n2nnc(-c3nc(-c4ccc(Cl)cc4)no3)c2N)c1
REMARK SMILES IDX 8 1 9 2 10 3 11 4 24 5 7 6 2 7 3 8 26 9 4 10 5 11 1 12 6 13
REMARK SMILES IDX 25 14 12 17 13 18 23 19 14 20 22 21 15 22 16 23 21 24 17 25
REMARK SMILES IDX 20 26 18 27 19 28
REMARK H PARENT 25 15 25 16
ROOT
ATOM      1  N   UNL     1      -1.962  -0.568  -0.679  1.00  0.00    -0.196 N 
ATOM      2  N   UNL     1      -1.963  -1.504  -1.669  1.00  0.00    -0.059 NA
ATOM      3  N   UNL     1      -0.717  -1.687  -2.081  1.00  0.00    -0.122 NA
ATOM      4  C   UNL     1       0.103  -0.965  -1.265  1.00  0.00     0.195 A 
ATOM      5  C   UNL     1      -0.640  -0.287  -0.316  1.00  0.00     0.161 A 
ENDROOT
BRANCH   1   6
ATOM      6  C   UNL     1      -3.189  -0.101  -0.132  1.00  0.00     0.072 A 
ATOM      7  C   UNL     1      -5.467  -0.698   0.541  1.00  0.00    -0.049 A 
ATOM      8  C   UNL     1      -5.646   0.595   1.029  1.00  0.00     0.004 A 
ATOM      9  C   UNL     1      -4.245  -1.033  -0.055  1.00  0.00     0.032 A 
ATOM     10  C   UNL     1      -4.625   1.541   0.912  1.00  0.00     0.006 A 
ATOM     11  C   UNL     1      -3.395   1.223   0.306  1.00  0.00    -0.025 A 
ATOM     12  C   UNL     1      -6.582  -1.700   0.605  1.00  0.00     0.044 C 
ATOM     13  C   UNL     1      -2.436   2.364   0.094  1.00  0.00     0.047 C 
ENDBRANCH   1   6
BRANCH   5  14
ATOM     14  N   UNL     1      -0.256   0.434   0.776  1.00  0.00    -0.382 N 
ATOM     15  H   UNL     1       0.726   0.393   1.056  1.00  0.00     0.158 HD
ATOM     16  H   UNL     1      -0.881   0.503   1.580  1.00  0.00     0.158 HD
ENDBRANCH   5  14
BRANCH   4  17
ATOM     17  C   UNL     1       1.653  -0.983  -1.378  1.00  0.00     0.282 A 
ATOM     18  N   UNL     1       2.469  -0.331  -0.572  1.00  0.00    -0.185 NA
ATOM     19  O   UNL     1       2.325  -1.695  -2.333  1.00  0.00    -0.332 OA
ATOM     20  C   UNL     1       3.715  -0.653  -1.065  1.00  0.00     0.202 A 
ATOM     21  N   UNL     1       3.683  -1.476  -2.124  1.00  0.00    -0.057 NA
BRANCH  20  22
ATOM     22  C   UNL     1       4.944  -0.135  -0.472  1.00  0.00     0.023 A 
ATOM     23  C   UNL     1       6.203  -0.521  -0.961  1.00  0.00     0.014 A 
ATOM     24  C   UNL     1       4.886   0.765   0.604  1.00  0.00     0.014 A 
ATOM     25  C   UNL     1       7.376  -0.020  -0.386  1.00  0.00     0.021 A 
ATOM     26  C   UNL     1       6.059   1.267   1.179  1.00  0.00     0.021 A 
ATOM     27  C   UNL     1       7.298   0.872   0.682  1.00  0.00     0.041 A 
ATOM     28  Cl  UNL     1       8.740   1.488   1.389  1.00  0.00    -0.084 Cl
ENDBRANCH  20  22
ENDBRANCH   4  17
TORSDOF 4
