REMARK SMILES Cc1ccc(NC(=O)CSc2nnc(-c3cc4occc4n3C)n2-c2ccccc2C)c(Cl)c1
REMARK SMILES IDX 9 1 7 2 6 3 8 4 5 6 2 7 3 8 34 9 4 10 32 11 1 12 33 13 10 14
REMARK SMILES IDX 11 15 12 16 24 17 13 18 14 19 25 20 26 21 30 22 27 23 29 24
REMARK SMILES IDX 28 25 31 26 15 27 16 28 22 29 17 30 21 31 18 32 20 33 19 34
REMARK SMILES IDX 23 35
REMARK H PARENT 6 5
ROOT
ATOM      1  C   UNL     1       1.865   3.605  -1.963  1.00  0.00     0.178 C 
ENDROOT
BRANCH   1   2
ATOM      2  C   UNL     1       2.581   2.875  -0.834  1.00  0.00     0.234 C 
ATOM      3  N   UNL     1       2.898   1.563  -1.139  1.00  0.00    -0.324 N 
ATOM      4  O   UNL     1       2.803   3.440   0.234  1.00  0.00    -0.274 OA
ATOM      5  H   UNL     1       2.560   1.193  -2.029  1.00  0.00     0.170 HD
BRANCH   3   6
ATOM      6  C   UNL     1       3.535   0.605  -0.311  1.00  0.00     0.060 A 
ATOM      7  C   UNL     1       4.762  -1.403   1.267  1.00  0.00    -0.050 A 
ATOM      8  C   UNL     1       4.602  -0.104   1.757  1.00  0.00     0.005 A 
ATOM      9  C   UNL     1       4.328  -1.690  -0.030  1.00  0.00     0.026 A 
ATOM     10  C   UNL     1       3.992   0.888   0.978  1.00  0.00     0.028 A 
ATOM     11  C   UNL     1       3.720  -0.699  -0.808  1.00  0.00     0.064 A 
ATOM     12  C   UNL     1       5.448  -2.451   2.092  1.00  0.00     0.044 C 
ATOM     13  Cl  UNL     1       3.222  -1.127  -2.409  1.00  0.00    -0.082 Cl
ENDBRANCH   3   6
ENDBRANCH   1   2
BRANCH   1  14
ATOM     14  S   UNL     1       0.068   3.560  -1.686  1.00  0.00    -0.076 SA
BRANCH  14  15
ATOM     15  C   UNL     1      -0.228   1.871  -1.938  1.00  0.00     0.196 A 
ATOM     16  N   UNL     1       0.434   1.140  -2.806  1.00  0.00    -0.122 NA
ATOM     17  N   UNL     1      -1.239   1.134  -1.353  1.00  0.00    -0.269 N 
ATOM     18  N   UNL     1      -0.168  -0.087  -2.859  1.00  0.00    -0.127 NA
ATOM     19  C   UNL     1      -1.171  -0.092  -2.003  1.00  0.00     0.186 A 
BRANCH  17  20
ATOM     20  C   UNL     1      -2.179   1.530  -0.369  1.00  0.00     0.053 A 
ATOM     21  C   UNL     1      -3.542   1.391  -0.682  1.00  0.00     0.027 A 
ATOM     22  C   UNL     1      -1.783   2.018   0.892  1.00  0.00    -0.027 A 
ATOM     23  C   UNL     1      -4.516   1.786   0.233  1.00  0.00     0.002 A 
ATOM     24  C   UNL     1      -2.786   2.429   1.788  1.00  0.00     0.005 A 
ATOM     25  C   UNL     1      -4.138   2.315   1.462  1.00  0.00     0.000 A 
ATOM     26  C   UNL     1      -0.360   2.085   1.381  1.00  0.00     0.046 C 
ENDBRANCH  17  20
BRANCH  19  27
ATOM     27  C   UNL     1      -2.001  -1.239  -1.785  1.00  0.00     0.091 A 
ATOM     28  C   UNL     1      -2.803  -1.865  -2.734  1.00  0.00     0.079 A 
ATOM     29  N   UNL     1      -2.094  -1.922  -0.582  1.00  0.00    -0.338 N 
ATOM     30  C   UNL     1      -3.427  -2.899  -2.022  1.00  0.00     0.152 A 
ATOM     31  C   UNL     1      -3.012  -2.932  -0.740  1.00  0.00     0.087 A 
ATOM     32  O   UNL     1      -4.333  -3.880  -2.264  1.00  0.00    -0.463 OA
ATOM     33  C   UNL     1      -3.668  -3.991  -0.077  1.00  0.00     0.069 A 
ATOM     34  C   UNL     1      -4.461  -4.526  -1.068  1.00  0.00     0.198 A 
ATOM     35  C   UNL     1      -1.365  -1.714   0.644  1.00  0.00     0.150 C 
ENDBRANCH  19  27
ENDBRANCH  14  15
ENDBRANCH   1  14
TORSDOF 6
