REMARK SMILES Cc1ccc(N2CCN(C(=O)C3CCCN(c4ncnc5c4nc4n5CCCCC4)C3)CC2)c(C)c1
REMARK SMILES IDX 17 1 18 2 19 3 20 4 21 5 22 6 23 7 24 8 25 9 16 10 12 11
REMARK SMILES IDX 13 12 31 13 14 14 15 15 10 16 6 17 7 18 33 19 8 20 32 21
REMARK SMILES IDX 9 22 11 23 5 24 2 25 3 26 36 27 4 28 34 29 1 30 35 31 26 32
REMARK SMILES IDX 27 33 30 35 29 36 28 37
REMARK H PARENT
REMARK Flexibility Score:   77.900
ROOT
ATOM      1  C   UNL     1      -3.475  -0.104  -1.393  1.00  0.00     0.160 A 
ATOM      2  N   UNL     1      -3.544   0.317  -2.694  1.00  0.00    -0.217 NA
ATOM      3  C   UNL     1      -4.678   0.878  -3.160  1.00  0.00     0.226 A 
ATOM      4  N   UNL     1      -5.833   1.088  -2.508  1.00  0.00    -0.217 NA
ATOM      5  C   UNL     1      -5.743   0.663  -1.237  1.00  0.00     0.165 A 
ATOM      6  C   UNL     1      -4.652   0.077  -0.616  1.00  0.00     0.150 A 
ATOM      7  N   UNL     1      -4.969  -0.221   0.698  1.00  0.00    -0.228 NA
ATOM      8  C   UNL     1      -6.212   0.184   0.877  1.00  0.00     0.111 A 
ATOM      9  N   UNL     1      -6.726   0.722  -0.280  1.00  0.00    -0.313 N 
ENDROOT
BRANCH   1  10
ATOM     10  N   UNL     1      -2.281  -0.658  -0.916  1.00  0.00    -0.354 N 
ATOM     11  C   UNL     1       0.187  -0.947  -1.192  1.00  0.00     0.098 C 
ATOM     12  C   UNL     1       0.116  -1.659   0.169  1.00  0.00     0.017 C 
ATOM     13  C   UNL     1      -1.192  -0.825  -1.879  1.00  0.00     0.131 C 
ATOM     14  C   UNL     1      -1.161  -2.471   0.328  1.00  0.00     0.022 C 
ATOM     15  C   UNL     1      -2.391  -1.577   0.213  1.00  0.00     0.118 C 
BRANCH  11  16
ATOM     16  C   UNL     1       0.880   0.418  -1.068  1.00  0.00     0.227 C 
ATOM     17  N   UNL     1       5.085   0.776  -0.129  1.00  0.00    -0.368 N 
ATOM     18  C   UNL     1       4.571  -0.411  -0.845  1.00  0.00     0.138 C 
ATOM     19  C   UNL     1       4.073   1.666   0.469  1.00  0.00     0.138 C 
ATOM     20  C   UNL     1       3.098  -0.718  -0.504  1.00  0.00     0.141 C 
ATOM     21  C   UNL     1       2.835   1.756  -0.438  1.00  0.00     0.141 C 
ATOM     22  N   UNL     1       2.212   0.444  -0.666  1.00  0.00    -0.339 N 
ATOM     23  O   UNL     1       0.290   1.471  -1.314  1.00  0.00    -0.275 OA
BRANCH  17  24
ATOM     24  C   UNL     1       6.328   0.627   0.492  1.00  0.00     0.040 A 
ATOM     25  C   UNL     1       8.841   0.240   1.779  1.00  0.00    -0.051 A 
ATOM     26  C   UNL     1       7.700   0.529   2.523  1.00  0.00     0.005 A 
ATOM     27  C   UNL     1       8.733   0.181   0.387  1.00  0.00     0.009 A 
ATOM     28  C   UNL     1       6.467   0.715   1.888  1.00  0.00     0.026 A 
ATOM     29  C   UNL     1       7.499   0.385  -0.263  1.00  0.00    -0.027 A 
ATOM     30  C   UNL     1      10.169   0.066   2.451  1.00  0.00     0.044 C 
ATOM     31  C   UNL     1       7.486   0.345  -1.769  1.00  0.00     0.046 C 
ENDBRANCH  17  24
ENDBRANCH  11  16
ENDBRANCH   1  10
BRANCH   9  32
ATOM     32  C   UNL     1      -8.049   1.245  -0.540  1.00  0.00     0.125 C 
BRANCH  32  33
ATOM     33  C   UNL     1      -9.138   1.028   0.514  1.00  0.00     0.022 CG0
ATOM     34  G   UNL     1      -9.219  -0.414   1.007  1.00  0.00     0.000 G0
ENDBRANCH  32  33
ENDBRANCH   9  32
BRANCH   8  35
ATOM     35  C   UNL     1      -6.953   0.104   2.163  1.00  0.00     0.075 C 
BRANCH  35  36
ATOM     36  C   UNL     1      -8.195  -0.779   2.088  1.00  0.00     0.008 C 
BRANCH  36  37
ATOM     37  C   UNL     1      -9.219  -0.414   1.007  1.00  0.00     0.002 CG0
ATOM     38  G   UNL     1      -9.138   1.028   0.514  1.00  0.00     0.000 G0
ENDBRANCH  36  37
ENDBRANCH  35  36
ENDBRANCH   8  35
TORSDOF 3
