REMARK SMILES Cc1cccc(-n2c(=O)c3c(c4cc(C)ccc4n3C)n(CC(=O)Nc3ccc(C)c(C)c3)c2=O)c1
REMARK SMILES IDX 22 1 21 2 7 3 8 4 34 5 9 6 10 7 35 8 11 9 19 10 12 11 18 12
REMARK SMILES IDX 13 13 17 14 14 15 16 16 20 17 15 18 6 19 2 20 3 21 36 22
REMARK SMILES IDX 4 23 5 24 1 25 23 26 24 27 25 28 26 30 27 31 33 32 28 33
REMARK SMILES IDX 31 34 29 35 32 36 30 37
REMARK H PARENT 25 29
ROOT
ATOM      1  C   UNL     1      -0.076   0.448   1.481  1.00  0.00     0.228 C 
ENDROOT
BRANCH   1   2
ATOM      2  N   UNL     1      -1.275   0.152   0.705  1.00  0.00    -0.281 N 
ATOM      3  N   UNL     1      -2.941  -1.482   0.077  1.00  0.00    -0.226 N 
ATOM      4  C   UNL     1      -3.627  -0.561  -0.738  1.00  0.00     0.285 C 
ATOM      5  C   UNL     1      -1.772  -1.159   0.803  1.00  0.00     0.336 C 
ATOM      6  O   UNL     1      -4.711  -0.771  -1.279  1.00  0.00    -0.266 OA
ATOM      7  C   UNL     1      -2.982   0.716  -0.856  1.00  0.00     0.133 A 
ATOM      8  O   UNL     1      -1.160  -1.974   1.507  1.00  0.00    -0.247 OA
ATOM      9  C   UNL     1      -1.847   1.065  -0.176  1.00  0.00     0.085 A 
ATOM     10  N   UNL     1      -3.370   1.789  -1.623  1.00  0.00    -0.338 N 
ATOM     11  C   UNL     1      -1.487   2.393  -0.571  1.00  0.00     0.025 A 
ATOM     12  C   UNL     1      -2.479   2.832  -1.460  1.00  0.00     0.051 A 
ATOM     13  C   UNL     1      -0.423   3.282  -0.283  1.00  0.00     0.016 A 
ATOM     14  C   UNL     1      -2.457   4.120  -2.023  1.00  0.00     0.027 A 
ATOM     15  C   UNL     1      -0.374   4.564  -0.857  1.00  0.00    -0.050 A 
ATOM     16  C   UNL     1      -1.400   4.975  -1.702  1.00  0.00     0.005 A 
ATOM     17  C   UNL     1      -4.534   1.805  -2.486  1.00  0.00     0.150 C 
ATOM     18  C   UNL     1       0.751   5.497  -0.517  1.00  0.00     0.044 C 
BRANCH   3  19
ATOM     19  C   UNL     1      -3.487  -2.821   0.194  1.00  0.00     0.054 A 
ATOM     20  C   UNL     1      -3.994  -4.821   1.529  1.00  0.00    -0.049 A 
ATOM     21  C   UNL     1      -4.546  -5.436   0.404  1.00  0.00     0.003 A 
ATOM     22  C   UNL     1      -3.459  -3.526   1.410  1.00  0.00     0.030 A 
ATOM     23  C   UNL     1      -4.587  -4.759  -0.810  1.00  0.00     0.002 A 
ATOM     24  C   UNL     1      -4.066  -3.466  -0.913  1.00  0.00     0.027 A 
ATOM     25  C   UNL     1      -3.916  -5.552   2.836  1.00  0.00     0.044 C 
ENDBRANCH   3  19
ENDBRANCH   1   2
BRANCH   1  26
ATOM     26  C   UNL     1       1.219   0.184   0.698  1.00  0.00     0.244 C 
ATOM     27  O   UNL     1       1.225  -0.042  -0.508  1.00  0.00    -0.273 OA
ATOM     28  N   UNL     1       2.339   0.285   1.517  1.00  0.00    -0.325 N 
ATOM     29  H   UNL     1       2.172   0.404   2.508  1.00  0.00     0.169 HD
BRANCH  28  30
ATOM     30  C   UNL     1       3.694   0.179   1.139  1.00  0.00     0.041 A 
ATOM     31  C   UNL     1       4.647   0.263   2.159  1.00  0.00     0.026 A 
ATOM     32  C   UNL     1       4.132   0.008  -0.175  1.00  0.00     0.029 A 
ATOM     33  C   UNL     1       6.011   0.175   1.870  1.00  0.00     0.006 A 
ATOM     34  C   UNL     1       5.504  -0.083  -0.482  1.00  0.00    -0.046 A 
ATOM     35  C   UNL     1       6.454   0.001   0.553  1.00  0.00    -0.048 A 
ATOM     36  C   UNL     1       5.921  -0.271  -1.916  1.00  0.00     0.044 C 
ATOM     37  C   UNL     1       7.929  -0.093   0.275  1.00  0.00     0.044 C 
ENDBRANCH  28  30
ENDBRANCH   1  26
TORSDOF 4
