REMARK SMILES CCc1ccc(NC(=O)c2ccc3c(=O)n4nc(Nc5ccccc5C)sc4nc3c2)cc1
REMARK SMILES IDX 7 1 8 2 9 3 6 5 3 6 4 7 33 8 5 9 32 10 2 11 1 12 10 13 11 14
REMARK SMILES IDX 31 15 12 16 30 17 13 18 29 19 14 20 28 21 15 22 16 23 27 24
REMARK SMILES IDX 17 25 18 26 19 27 20 29 21 30 25 31 22 32 24 33 23 34 26 35
REMARK H PARENT 7 4 19 28
ROOT
ATOM      1  N   UNL     1       3.974  -0.294  -0.462  1.00  0.00    -0.322 N 
ATOM      2  C   UNL     1       3.095   0.770  -0.537  1.00  0.00     0.255 C 
ATOM      3  O   UNL     1       3.372   1.963  -0.527  1.00  0.00    -0.269 OA
ATOM      4  H   UNL     1       3.576  -1.217  -0.351  1.00  0.00     0.170 HD
ENDROOT
BRANCH   1   5
ATOM      5  C   UNL     1       5.384  -0.238  -0.433  1.00  0.00     0.041 A 
ATOM      6  C   UNL     1       8.206  -0.301  -0.375  1.00  0.00    -0.048 A 
ATOM      7  C   UNL     1       7.467  -1.481  -0.243  1.00  0.00     0.006 A 
ATOM      8  C   UNL     1       7.521   0.908  -0.530  1.00  0.00     0.006 A 
ATOM      9  C   UNL     1       6.070  -1.449  -0.276  1.00  0.00     0.026 A 
ATOM     10  C   UNL     1       6.121   0.939  -0.562  1.00  0.00     0.026 A 
BRANCH   6  11
ATOM     11  C   UNL     1       9.712  -0.327  -0.322  1.00  0.00     0.032 C 
ATOM     12  C   UNL     1      10.231  -0.167   1.098  1.00  0.00     0.009 C 
ENDBRANCH   6  11
ENDBRANCH   1   5
BRANCH   2  13
ATOM     13  C   UNL     1       1.656   0.389  -0.599  1.00  0.00     0.042 A 
ATOM     14  C   UNL     1       1.224  -0.725  -1.332  1.00  0.00     0.015 A 
ATOM     15  C   UNL     1       0.723   1.193   0.071  1.00  0.00     0.043 A 
ATOM     16  C   UNL     1      -0.134  -1.045  -1.373  1.00  0.00     0.017 A 
ATOM     17  C   UNL     1      -0.638   0.881   0.039  1.00  0.00     0.080 A 
ATOM     18  C   UNL     1      -1.056  -0.245  -0.686  1.00  0.00     0.068 A 
ATOM     19  N   UNL     1      -1.534   1.711   0.737  1.00  0.00    -0.219 NA
ATOM     20  C   UNL     1      -2.503  -0.569  -0.717  1.00  0.00     0.283 C 
ATOM     21  C   UNL     1      -2.780   1.389   0.667  1.00  0.00     0.217 C 
ATOM     22  O   UNL     1      -2.889  -1.562  -1.327  1.00  0.00    -0.267 OA
ATOM     23  N   UNL     1      -3.298   0.321  -0.015  1.00  0.00    -0.165 N 
ATOM     24  S   UNL     1      -4.052   2.267   1.442  1.00  0.00    -0.057 SA
ATOM     25  N   UNL     1      -4.660   0.162   0.048  1.00  0.00    -0.133 NA
ATOM     26  C   UNL     1      -5.185   1.095   0.775  1.00  0.00     0.210 C 
ATOM     27  N   UNL     1      -6.492   1.330   1.104  1.00  0.00    -0.330 N 
ATOM     28  H   UNL     1      -6.666   2.274   1.428  1.00  0.00     0.169 HD
BRANCH  27  29
ATOM     29  C   UNL     1      -7.598   0.740   0.457  1.00  0.00     0.043 A 
ATOM     30  C   UNL     1      -8.504   1.593  -0.201  1.00  0.00     0.026 A 
ATOM     31  C   UNL     1      -7.805  -0.651   0.384  1.00  0.00    -0.028 A 
ATOM     32  C   UNL     1      -9.584   1.086  -0.924  1.00  0.00     0.002 A 
ATOM     33  C   UNL     1      -8.888  -1.148  -0.365  1.00  0.00     0.005 A 
ATOM     34  C   UNL     1      -9.773  -0.287  -1.011  1.00  0.00     0.000 A 
ATOM     35  C   UNL     1      -6.922  -1.653   1.078  1.00  0.00     0.046 C 
ENDBRANCH  27  29
ENDBRANCH   2  13
TORSDOF 4
