REMARK SMILES Cc1ccc(Cl)cc1Nc1nn2c(=O)c3ccc(C(=O)NCc4ccc(F)cc4)cc3nc2s1
REMARK SMILES IDX 19 1 20 2 21 3 18 5 9 6 10 7 11 8 34 9 12 10 33 11 13 12
REMARK SMILES IDX 32 13 14 14 15 15 31 16 16 17 30 18 17 19 8 21 2 22 3 23
REMARK SMILES IDX 4 24 7 25 5 26 1 27 6 28 22 29 23 30 24 31 29 32 25 33 28 34
REMARK SMILES IDX 26 35 27 36
REMARK H PARENT 21 4 9 20
ROOT
ATOM      1  C   UNL     1       4.064   0.512  -1.687  1.00  0.00     0.251 C 
ATOM      2  O   UNL     1       4.693   0.043  -2.629  1.00  0.00    -0.269 OA
ATOM      3  N   UNL     1       4.622   1.324  -0.723  1.00  0.00    -0.348 N 
ATOM      4  H   UNL     1       4.119   1.483   0.138  1.00  0.00     0.164 HD
ENDROOT
BRANCH   1   5
ATOM      5  C   UNL     1       2.623   0.179  -1.521  1.00  0.00     0.042 A 
ATOM      6  N   UNL     1      -5.344   1.159   0.880  1.00  0.00    -0.330 N 
ATOM      7  C   UNL     1      -4.068   0.914   0.450  1.00  0.00     0.210 C 
ATOM      8  N   UNL     1      -3.592  -0.086  -0.218  1.00  0.00    -0.133 NA
ATOM      9  S   UNL     1      -2.909   2.175   0.861  1.00  0.00    -0.057 SA
ATOM     10  N   UNL     1      -2.248   0.087  -0.437  1.00  0.00    -0.165 N 
ATOM     11  C   UNL     1      -1.695   1.234   0.064  1.00  0.00     0.217 C 
ATOM     12  C   UNL     1      -1.503  -0.864  -1.115  1.00  0.00     0.283 C 
ATOM     13  N   UNL     1      -0.458   1.585  -0.030  1.00  0.00    -0.219 NA
ATOM     14  O   UNL     1      -1.925  -1.923  -1.570  1.00  0.00    -0.267 OA
ATOM     15  C   UNL     1      -0.069  -0.514  -1.266  1.00  0.00     0.068 A 
ATOM     16  C   UNL     1       0.387   0.693  -0.716  1.00  0.00     0.080 A 
ATOM     17  C   UNL     1       0.803  -1.368  -1.948  1.00  0.00     0.017 A 
ATOM     18  C   UNL     1       1.736   1.035  -0.853  1.00  0.00     0.043 A 
ATOM     19  C   UNL     1       2.148  -1.017  -2.077  1.00  0.00     0.015 A 
ATOM     20  H   UNL     1      -5.515   2.131   1.110  1.00  0.00     0.169 HD
BRANCH   6  21
ATOM     21  C   UNL     1      -6.485   0.465   0.427  1.00  0.00     0.045 A 
ATOM     22  C   UNL     1      -6.645  -0.931   0.548  1.00  0.00    -0.027 A 
ATOM     23  C   UNL     1      -7.773  -1.551  -0.021  1.00  0.00     0.007 A 
ATOM     24  C   UNL     1      -8.749  -0.804  -0.678  1.00  0.00     0.021 A 
ATOM     25  C   UNL     1      -7.481   1.204  -0.238  1.00  0.00     0.046 A 
ATOM     26  C   UNL     1      -8.601   0.572  -0.779  1.00  0.00     0.043 A 
ATOM     27  C   UNL     1      -5.660  -1.811   1.271  1.00  0.00     0.046 C 
ATOM     28  Cl  UNL     1      -9.799   1.506  -1.588  1.00  0.00    -0.084 Cl
ENDBRANCH   6  21
ENDBRANCH   1   5
BRANCH   3  29
ATOM     29  C   UNL     1       6.041   1.602  -0.704  1.00  0.00     0.152 C 
BRANCH  29  30
ATOM     30  C   UNL     1       6.748   0.701   0.278  1.00  0.00    -0.029 A 
ATOM     31  C   UNL     1       7.035   1.143   1.579  1.00  0.00     0.008 A 
ATOM     32  C   UNL     1       7.095  -0.609  -0.092  1.00  0.00     0.008 A 
ATOM     33  C   UNL     1       7.670   0.293   2.487  1.00  0.00     0.039 A 
ATOM     34  C   UNL     1       7.729  -1.456   0.818  1.00  0.00     0.039 A 
ATOM     35  C   UNL     1       8.011  -0.997   2.098  1.00  0.00     0.123 A 
ATOM     36  F   UNL     1       8.618  -1.810   2.973  1.00  0.00    -0.207 F 
ENDBRANCH  29  30
ENDBRANCH   3  29
TORSDOF 4
