REMARK SMILES Cc1ccc(NC(=O)c2ccc(CN3C(=O)CCn4nc(C)cc43)cc2)c(Cl)c1
REMARK SMILES IDX 9 1 10 2 11 3 12 4 25 5 26 6 7 7 6 8 8 9 5 11 2 12 3 13
REMARK SMILES IDX 29 14 4 15 27 16 1 17 28 18 13 19 14 20 15 21 24 22 16 23
REMARK SMILES IDX 17 24 23 25 19 26 18 27 21 28 20 29 22 30
REMARK H PARENT 6 10
ROOT
ATOM      1  C   UNL     1      -0.982  -0.415   0.919  1.00  0.00     0.040 A 
ATOM      2  C   UNL     1      -0.709   0.883   0.473  1.00  0.00     0.014 A 
ATOM      3  C   UNL     1       0.519   1.481   0.771  1.00  0.00     0.006 A 
ATOM      4  C   UNL     1       1.497   0.789   1.502  1.00  0.00    -0.028 A 
ATOM      5  C   UNL     1       1.219  -0.515   1.936  1.00  0.00     0.006 A 
ATOM      6  C   UNL     1      -0.008  -1.116   1.640  1.00  0.00     0.014 A 
ENDROOT
BRANCH   1   7
ATOM      7  C   UNL     1      -2.276  -1.098   0.627  1.00  0.00     0.255 C 
ATOM      8  N   UNL     1      -3.377  -0.266   0.590  1.00  0.00    -0.321 N 
ATOM      9  O   UNL     1      -2.271  -2.314   0.478  1.00  0.00    -0.269 OA
ATOM     10  H   UNL     1      -3.247   0.702   0.861  1.00  0.00     0.170 HD
BRANCH   8  11
ATOM     11  C   UNL     1      -4.721  -0.613   0.306  1.00  0.00     0.060 A 
ATOM     12  C   UNL     1      -7.437  -1.173  -0.259  1.00  0.00    -0.050 A 
ATOM     13  C   UNL     1      -6.466  -2.175  -0.342  1.00  0.00     0.005 A 
ATOM     14  C   UNL     1      -7.048   0.114   0.126  1.00  0.00     0.026 A 
ATOM     15  C   UNL     1      -5.120  -1.897  -0.069  1.00  0.00     0.028 A 
ATOM     16  C   UNL     1      -5.704   0.390   0.398  1.00  0.00     0.064 A 
ATOM     17  C   UNL     1      -8.880  -1.487  -0.520  1.00  0.00     0.044 C 
ATOM     18  Cl  UNL     1      -5.283   2.008   0.857  1.00  0.00    -0.082 Cl
ENDBRANCH   8  11
ENDBRANCH   1   7
BRANCH   4  19
ATOM     19  C   UNL     1       2.828   1.439   1.815  1.00  0.00     0.162 C 
BRANCH  19  20
ATOM     20  N   UNL     1       3.672   1.605   0.630  1.00  0.00    -0.292 N 
ATOM     21  C   UNL     1       3.649   2.833  -0.040  1.00  0.00     0.230 C 
ATOM     22  C   UNL     1       4.504   0.595   0.151  1.00  0.00     0.134 A 
ATOM     23  O   UNL     1       3.028   3.815   0.373  1.00  0.00    -0.274 OA
ATOM     24  C   UNL     1       4.336   2.898  -1.395  1.00  0.00     0.124 C 
ATOM     25  C   UNL     1       4.682  -0.723   0.502  1.00  0.00     0.072 A 
ATOM     26  N   UNL     1       5.414   0.822  -0.840  1.00  0.00    -0.249 N 
ATOM     27  C   UNL     1       5.633   2.124  -1.420  1.00  0.00     0.156 C 
ATOM     28  C   UNL     1       5.708  -1.201  -0.355  1.00  0.00     0.062 A 
ATOM     29  N   UNL     1       6.161  -0.239  -1.170  1.00  0.00    -0.176 NA
ATOM     30  C   UNL     1       6.286  -2.565  -0.416  1.00  0.00     0.069 C 
ENDBRANCH  19  20
ENDBRANCH   4  19
TORSDOF 4
