REMARK SMILES Cc1ccc(NC(=O)c2ccc(NC(=O)N3CCSc4nc(C)cc(C)c43)cc2)c(Cl)c1
REMARK SMILES IDX 9 1 10 2 11 3 12 4 28 5 29 6 7 7 6 8 8 9 5 11 2 12 3 13
REMARK SMILES IDX 32 14 4 15 30 16 1 17 31 18 13 19 14 20 15 21 16 23 17 24
REMARK SMILES IDX 27 25 18 26 25 27 20 28 19 29 24 30 21 31 22 32 26 33 23 34
REMARK H PARENT 6 10 13 22
ROOT
ATOM      1  C   UNL     1       2.338  -0.463   0.307  1.00  0.00     0.040 A 
ATOM      2  C   UNL     1       1.343  -0.529   1.288  1.00  0.00     0.016 A 
ATOM      3  C   UNL     1       0.012  -0.235   0.969  1.00  0.00     0.027 A 
ATOM      4  C   UNL     1      -0.343   0.110  -0.337  1.00  0.00     0.042 A 
ATOM      5  C   UNL     1       0.655   0.166  -1.319  1.00  0.00     0.027 A 
ATOM      6  C   UNL     1       1.988  -0.125  -1.004  1.00  0.00     0.016 A 
ENDROOT
BRANCH   1   7
ATOM      7  C   UNL     1       3.743  -0.784   0.692  1.00  0.00     0.255 C 
ATOM      8  N   UNL     1       4.707  -0.051   0.028  1.00  0.00    -0.321 N 
ATOM      9  O   UNL     1       3.931  -1.625   1.562  1.00  0.00    -0.269 OA
ATOM     10  H   UNL     1       4.396   0.703  -0.574  1.00  0.00     0.170 HD
BRANCH   8  11
ATOM     11  C   UNL     1       6.114  -0.151   0.152  1.00  0.00     0.060 A 
ATOM     12  C   UNL     1       8.938  -0.245   0.315  1.00  0.00    -0.050 A 
ATOM     13  C   UNL     1       8.147  -1.155   1.024  1.00  0.00     0.005 A 
ATOM     14  C   UNL     1       8.310   0.703  -0.499  1.00  0.00     0.026 A 
ATOM     15  C   UNL     1       6.749  -1.107   0.946  1.00  0.00     0.028 A 
ATOM     16  C   UNL     1       6.914   0.750  -0.575  1.00  0.00     0.064 A 
ATOM     17  C   UNL     1      10.434  -0.326   0.378  1.00  0.00     0.044 C 
ATOM     18  Cl  UNL     1       6.195   1.950  -1.599  1.00  0.00    -0.082 Cl
ENDBRANCH   8  11
ENDBRANCH   1   7
BRANCH   4  19
ATOM     19  N   UNL     1      -1.656   0.432  -0.733  1.00  0.00    -0.308 N 
ATOM     20  C   UNL     1      -2.824   0.253  -0.009  1.00  0.00     0.326 C 
ATOM     21  O   UNL     1      -2.899  -0.342   1.060  1.00  0.00    -0.248 OA
ATOM     22  H   UNL     1      -1.798   0.615  -1.715  1.00  0.00     0.171 HD
BRANCH  20  23
ATOM     23  N   UNL     1      -3.945   0.818  -0.656  1.00  0.00    -0.290 N 
ATOM     24  C   UNL     1      -3.849   2.196  -1.156  1.00  0.00     0.139 C 
ATOM     25  C   UNL     1      -5.262   0.374  -0.264  1.00  0.00     0.081 A 
ATOM     26  C   UNL     1      -4.334   3.200  -0.125  1.00  0.00     0.098 C 
ATOM     27  C   UNL     1      -5.585  -1.002  -0.242  1.00  0.00    -0.023 A 
ATOM     28  C   UNL     1      -6.296   1.278   0.058  1.00  0.00     0.120 A 
ATOM     29  S   UNL     1      -6.125   3.058   0.056  1.00  0.00    -0.102 SA
ATOM     30  C   UNL     1      -6.866  -1.392   0.177  1.00  0.00     0.029 A 
ATOM     31  N   UNL     1      -7.544   0.890   0.425  1.00  0.00    -0.245 NA
ATOM     32  C   UNL     1      -7.809  -0.428   0.501  1.00  0.00     0.039 A 
ATOM     33  C   UNL     1      -4.639  -2.096  -0.661  1.00  0.00     0.047 C 
ATOM     34  C   UNL     1      -9.184  -0.831   0.938  1.00  0.00     0.067 C 
ENDBRANCH  20  23
ENDBRANCH   4  19
TORSDOF 4
