REMARK SMILES Cc1ccc(NC(=O)CN2CCCN(Cc3cc(C)ccc3C)S2(=O)=O)c(Cl)c1
REMARK SMILES IDX 10 1 11 2 12 3 13 4 14 5 24 6 25 7 26 8 9 9 7 10 6 11 8 12
REMARK SMILES IDX 5 14 2 15 3 16 29 17 4 18 27 19 1 20 28 21 15 22 16 23 17 24
REMARK SMILES IDX 22 25 18 26 21 27 20 28 23 29 19 30
REMARK H PARENT 6 13
ROOT
ATOM      1  N   UNL     1       0.459  -2.839   0.425  1.00  0.00    -0.179 NA
ATOM      2  C   UNL     1      -0.437  -3.665   1.271  1.00  0.00     0.105 C 
ATOM      3  C   UNL     1      -1.464  -2.831   2.018  1.00  0.00     0.034 C 
ATOM      4  C   UNL     1      -2.413  -2.117   1.063  1.00  0.00     0.105 C 
ATOM      5  N   UNL     1      -1.741  -1.699  -0.176  1.00  0.00    -0.184 NA
ATOM      6  S   UNL     1      -0.119  -1.351  -0.107  1.00  0.00     0.282 S 
ATOM      7  O   UNL     1       0.125  -0.413   0.965  1.00  0.00    -0.195 OA
ATOM      8  O   UNL     1       0.394  -1.123  -1.434  1.00  0.00    -0.195 OA
ENDROOT
BRANCH   1   9
ATOM      9  C   UNL     1       1.864  -2.831   0.909  1.00  0.00     0.203 C 
BRANCH   9  10
ATOM     10  C   UNL     1       2.891  -2.111   0.042  1.00  0.00     0.239 C 
ATOM     11  N   UNL     1       3.006  -0.761   0.336  1.00  0.00    -0.324 N 
ATOM     12  O   UNL     1       3.550  -2.732  -0.789  1.00  0.00    -0.273 OA
ATOM     13  H   UNL     1       2.319  -0.360   0.976  1.00  0.00     0.170 HD
BRANCH  11  14
ATOM     14  C   UNL     1       3.869   0.190  -0.261  1.00  0.00     0.060 A 
ATOM     15  C   UNL     1       5.533   2.182  -1.396  1.00  0.00    -0.050 A 
ATOM     16  C   UNL     1       5.646   0.845  -1.787  1.00  0.00     0.005 A 
ATOM     17  C   UNL     1       4.597   2.519  -0.414  1.00  0.00     0.026 A 
ATOM     18  C   UNL     1       4.820  -0.140  -1.230  1.00  0.00     0.028 A 
ATOM     19  C   UNL     1       3.772   1.534   0.142  1.00  0.00     0.064 A 
ATOM     20  C   UNL     1       6.441   3.226  -1.975  1.00  0.00     0.044 C 
ATOM     21  Cl  UNL     1       2.640   2.025   1.358  1.00  0.00    -0.082 Cl
ENDBRANCH  11  14
ENDBRANCH   9  10
ENDBRANCH   1   9
BRANCH   5  22
ATOM     22  C   UNL     1      -2.564  -0.978  -1.167  1.00  0.00     0.139 C 
BRANCH  22  23
ATOM     23  C   UNL     1      -3.233   0.298  -0.692  1.00  0.00    -0.030 A 
ATOM     24  C   UNL     1      -4.525   0.197  -0.130  1.00  0.00     0.008 A 
ATOM     25  C   UNL     1      -2.635   1.571  -0.789  1.00  0.00    -0.047 A 
ATOM     26  C   UNL     1      -5.203   1.315   0.369  1.00  0.00    -0.051 A 
ATOM     27  C   UNL     1      -3.322   2.688  -0.282  1.00  0.00     0.004 A 
ATOM     28  C   UNL     1      -4.592   2.565   0.282  1.00  0.00     0.004 A 
ATOM     29  C   UNL     1      -1.272   1.803  -1.384  1.00  0.00     0.044 C 
ATOM     30  C   UNL     1      -6.585   1.180   0.935  1.00  0.00     0.044 C 
ENDBRANCH  22  23
ENDBRANCH   5  22
TORSDOF 5
