REMARK SMILES Cc1cc(C)c(NC(=O)CN2C(=O)C3(SCC(=O)N3c3ccc(F)cc3)c3ccccc32)c(C)c1
REMARK SMILES IDX 10 1 8 2 7 3 9 4 6 6 2 7 3 8 35 9 4 10 33 11 1 12 5 13 34 14
REMARK SMILES IDX 11 15 12 16 32 17 13 18 14 19 31 20 27 21 15 22 19 23 30 24
REMARK SMILES IDX 28 25 16 26 17 27 29 28 18 29 20 30 21 31 26 32 22 33 25 34
REMARK SMILES IDX 23 35 24 36
REMARK H PARENT 7 5
ROOT
ATOM      1  C   UNL     1       0.322   0.932   1.865  1.00  0.00     0.226 C 
ENDROOT
BRANCH   1   2
ATOM      2  C   UNL     1       1.718   0.974   1.249  1.00  0.00     0.244 C 
ATOM      3  N   UNL     1       2.169  -0.284   0.875  1.00  0.00    -0.324 N 
ATOM      4  O   UNL     1       2.285   2.046   1.058  1.00  0.00    -0.273 OA
ATOM      5  H   UNL     1       1.424  -0.957   0.708  1.00  0.00     0.170 HD
BRANCH   3   6
ATOM      6  C   UNL     1       3.422  -0.586   0.284  1.00  0.00     0.047 A 
ATOM      7  C   UNL     1       5.846  -1.281  -1.012  1.00  0.00    -0.050 A 
ATOM      8  C   UNL     1       5.823  -0.315  -0.005  1.00  0.00     0.009 A 
ATOM      9  C   UNL     1       4.653  -1.914  -1.358  1.00  0.00     0.009 A 
ATOM     10  C   UNL     1       4.635   0.017   0.679  1.00  0.00    -0.027 A 
ATOM     11  C   UNL     1       3.444  -1.590  -0.717  1.00  0.00    -0.027 A 
ATOM     12  C   UNL     1       7.119  -1.597  -1.738  1.00  0.00     0.044 C 
ATOM     13  C   UNL     1       4.778   0.976   1.830  1.00  0.00     0.046 C 
ATOM     14  C   UNL     1       2.199  -2.311  -1.166  1.00  0.00     0.046 C 
ENDBRANCH   3   6
ENDBRANCH   1   2
BRANCH   1  15
ATOM     15  N   UNL     1      -0.673   0.946   0.819  1.00  0.00    -0.299 N 
ATOM     16  C   UNL     1      -1.101  -0.216   0.165  1.00  0.00     0.269 C 
ATOM     17  C   UNL     1      -1.321   2.085   0.322  1.00  0.00     0.051 A 
ATOM     18  O   UNL     1      -0.682  -1.343   0.398  1.00  0.00    -0.270 OA
ATOM     19  C   UNL     1      -2.157   0.228  -0.911  1.00  0.00     0.201 C 
ATOM     20  C   UNL     1      -1.158   3.403   0.707  1.00  0.00     0.027 A 
ATOM     21  C   UNL     1      -2.254   1.717  -0.660  1.00  0.00     0.022 A 
ATOM     22  S   UNL     1      -1.357  -0.048  -2.541  1.00  0.00    -0.109 SA
ATOM     23  N   UNL     1      -3.417  -0.506  -0.928  1.00  0.00    -0.283 N 
ATOM     24  C   UNL     1      -1.970   4.365   0.100  1.00  0.00     0.002 A 
ATOM     25  C   UNL     1      -3.068   2.669  -1.258  1.00  0.00     0.010 A 
ATOM     26  C   UNL     1      -2.883  -0.570  -3.305  1.00  0.00     0.173 C 
ATOM     27  C   UNL     1      -3.865  -0.882  -2.202  1.00  0.00     0.238 C 
ATOM     28  C   UNL     1      -2.921   4.001  -0.868  1.00  0.00     0.001 A 
ATOM     29  O   UNL     1      -4.956  -1.377  -2.476  1.00  0.00    -0.273 OA
BRANCH  23  30
ATOM     30  C   UNL     1      -4.136  -0.843   0.270  1.00  0.00     0.046 A 
ATOM     31  C   UNL     1      -4.005  -0.106   1.459  1.00  0.00     0.029 A 
ATOM     32  C   UNL     1      -4.995  -1.958   0.302  1.00  0.00     0.029 A 
ATOM     33  C   UNL     1      -4.701  -0.464   2.622  1.00  0.00     0.041 A 
ATOM     34  C   UNL     1      -5.690  -2.320   1.462  1.00  0.00     0.041 A 
ATOM     35  C   UNL     1      -5.536  -1.568   2.614  1.00  0.00     0.123 A 
ATOM     36  F   UNL     1      -6.199  -1.908   3.726  1.00  0.00    -0.207 F 
ENDBRANCH  23  30
ENDBRANCH   1  15
TORSDOF 4
