REMARK SMILES COc1c2c(c(C)c3c1C(=O)OC3)OC1(C)CC3(O)OCC4(C)OC5(OC)CCC(C)(C1C2)C43O5
REMARK SMILES IDX 3 1 4 2 5 3 6 4 7 5 8 6 9 7 10 8 11 9 12 10 13 11 14 12
REMARK SMILES IDX 15 13 16 14 17 15 18 16 20 17 21 18 22 19 23 20 24 21 25 22
REMARK SMILES IDX 28 23 29 24 30 25 31 26 32 27 33 28 34 29 35 30 2 31 1 32
REMARK SMILES IDX 19 33 26 35 27 36
REMARK H PARENT 19 34
ROOT
ATOM      1  C   UNL     1      -3.171   1.710  -0.702  1.00  0.00     0.140 A 
ATOM      2  C   UNL     1      -2.216   0.975   0.025  1.00  0.00     0.038 A 
ATOM      3  C   UNL     1      -2.477  -0.373   0.328  1.00  0.00     0.130 A 
ATOM      4  C   UNL     1      -3.664  -1.007  -0.096  1.00  0.00    -0.001 A 
ATOM      5  C   UNL     1      -3.921  -2.450   0.235  1.00  0.00     0.049 C 
ATOM      6  C   UNL     1      -4.601  -0.239  -0.780  1.00  0.00     0.014 A 
ATOM      7  C   UNL     1      -4.357   1.090  -1.068  1.00  0.00     0.109 A 
ATOM      8  C   UNL     1      -5.524   1.637  -1.757  1.00  0.00     0.342 C 
ATOM      9  O   UNL     1      -5.687   2.767  -2.171  1.00  0.00    -0.246 OA
ATOM     10  O   UNL     1      -6.425   0.615  -1.875  1.00  0.00    -0.457 OA
ATOM     11  C   UNL     1      -5.938  -0.606  -1.291  1.00  0.00     0.270 C 
ATOM     12  O   UNL     1      -1.601  -1.168   1.014  1.00  0.00    -0.486 OA
ATOM     13  C   UNL     1      -0.531  -0.552   1.759  1.00  0.00     0.115 C 
ATOM     14  C   UNL     1      -1.153  -0.127   3.110  1.00  0.00     0.057 C 
ATOM     15  C   UNL     1       0.507  -1.728   1.987  1.00  0.00     0.117 C 
ATOM     16  C   UNL     1       1.904  -1.160   2.074  1.00  0.00     0.202 C 
ATOM     17  O   UNL     1       3.006  -1.987   2.405  1.00  0.00    -0.344 OA
ATOM     18  C   UNL     1       4.181  -1.163   2.091  1.00  0.00     0.202 C 
ATOM     19  C   UNL     1       3.698   0.060   1.237  1.00  0.00     0.130 C 
ATOM     20  C   UNL     1       3.822   1.377   2.001  1.00  0.00     0.048 C 
ATOM     21  O   UNL     1       4.517   0.203   0.073  1.00  0.00    -0.315 OA
ATOM     22  C   UNL     1       3.787  -0.456  -0.961  1.00  0.00     0.284 C 
ATOM     23  C   UNL     1       3.042   0.684  -1.716  1.00  0.00     0.100 C 
ATOM     24  C   UNL     1       1.890   1.322  -0.889  1.00  0.00     0.019 C 
ATOM     25  C   UNL     1       1.196   0.245  -0.026  1.00  0.00     0.012 C 
ATOM     26  C   UNL     1       0.483  -0.683  -1.090  1.00  0.00     0.015 C 
ATOM     27  C   UNL     1       0.120   0.694   1.021  1.00  0.00     0.047 C 
ATOM     28  C   UNL     1      -0.965   1.648   0.511  1.00  0.00     0.051 C 
ATOM     29  C   UNL     1       2.344  -0.488   0.754  1.00  0.00     0.164 C 
ATOM     30  O   UNL     1       2.876  -1.352  -0.290  1.00  0.00    -0.311 OA
ENDROOT
BRANCH   1  31
ATOM     31  O   UNL     1      -2.945   3.036  -0.947  1.00  0.00    -0.495 OA
ATOM     32  C   UNL     1      -2.505   3.241  -2.291  1.00  0.00     0.278 C 
ENDBRANCH   1  31
BRANCH  16  33
ATOM     33  O   UNL     1       1.835  -0.258   3.183  1.00  0.00    -0.363 OA
ATOM     34  H   UNL     1       1.784  -0.842   3.963  1.00  0.00     0.214 HD
ENDBRANCH  16  33
BRANCH  22  35
ATOM     35  O   UNL     1       4.710  -1.131  -1.798  1.00  0.00    -0.331 OA
ATOM     36  C   UNL     1       4.121  -2.122  -2.623  1.00  0.00     0.201 C 
ENDBRANCH  22  35
TORSDOF 3
