REMARK SMILES Cc1ccc(Cl)cc1N1CCN(C(=O)c2c(C)oc3ncnc(N4CCCCC4)c23)CC1
REMARK SMILES IDX 9 1 10 2 11 3 12 4 13 5 14 6 31 7 32 8 8 9 2 10 3 11 4 12
REMARK SMILES IDX 7 13 5 14 1 15 6 16 15 17 16 18 30 19 18 20 23 21 19 22
REMARK SMILES IDX 22 23 20 24 21 25 17 26 24 27 25 28 29 29 26 30 28 31 27 32
REMARK H PARENT
ROOT
ATOM      1  N   UNL     1       2.739  -0.254   0.188  1.00  0.00    -0.368 N 
ATOM      2  C   UNL     1       2.525   0.005   1.620  1.00  0.00     0.138 C 
ATOM      3  C   UNL     1       1.041   0.197   1.977  1.00  0.00     0.141 C 
ATOM      4  N   UNL     1       0.157  -0.843   1.442  1.00  0.00    -0.335 N 
ATOM      5  C   UNL     1      -1.073  -1.035   2.059  1.00  0.00     0.258 C 
ATOM      6  O   UNL     1      -1.417  -0.396   3.050  1.00  0.00    -0.269 OA
ATOM      7  C   UNL     1       0.656  -1.588   0.276  1.00  0.00     0.141 C 
ATOM      8  C   UNL     1       1.595  -0.742  -0.598  1.00  0.00     0.138 C 
ENDROOT
BRANCH   1   9
ATOM      9  C   UNL     1       3.659   0.526  -0.510  1.00  0.00     0.041 A 
ATOM     10  C   UNL     1       3.558   1.921  -0.694  1.00  0.00    -0.028 A 
ATOM     11  C   UNL     1       4.567   2.600  -1.406  1.00  0.00     0.007 A 
ATOM     12  C   UNL     1       5.649   1.913  -1.955  1.00  0.00     0.021 A 
ATOM     13  C   UNL     1       4.752  -0.148  -1.082  1.00  0.00     0.046 A 
ATOM     14  C   UNL     1       5.734   0.537  -1.794  1.00  0.00     0.043 A 
ATOM     15  C   UNL     1       2.419   2.738  -0.149  1.00  0.00     0.046 C 
ATOM     16  Cl  UNL     1       7.061  -0.323  -2.473  1.00  0.00    -0.084 Cl
ENDBRANCH   1   9
BRANCH   5  17
ATOM     17  C   UNL     1      -1.944  -2.059   1.524  1.00  0.00     0.094 A 
ATOM     18  C   UNL     1      -2.213  -3.264   2.145  1.00  0.00     0.117 A 
ATOM     19  C   UNL     1      -2.741  -2.038   0.340  1.00  0.00     0.096 A 
ATOM     20  O   UNL     1      -3.077  -4.001   1.394  1.00  0.00    -0.442 OA
ATOM     21  C   UNL     1      -2.987  -1.149  -0.722  1.00  0.00     0.144 A 
ATOM     22  C   UNL     1      -3.394  -3.261   0.295  1.00  0.00     0.232 A 
ATOM     23  N   UNL     1      -3.804  -1.581  -1.718  1.00  0.00    -0.218 NA
ATOM     24  N   UNL     1      -4.222  -3.704  -0.657  1.00  0.00    -0.201 NA
ATOM     25  C   UNL     1      -4.367  -2.801  -1.630  1.00  0.00     0.228 A 
ATOM     26  C   UNL     1      -1.759  -3.874   3.412  1.00  0.00     0.088 C 
BRANCH  21  27
ATOM     27  N   UNL     1      -2.388   0.127  -0.792  1.00  0.00    -0.356 N 
ATOM     28  C   UNL     1      -3.086   1.062   0.112  1.00  0.00     0.118 C 
ATOM     29  C   UNL     1      -2.309   0.632  -2.174  1.00  0.00     0.118 C 
ATOM     30  C   UNL     1      -2.320   2.385   0.156  1.00  0.00     0.022 C 
ATOM     31  C   UNL     1      -1.526   1.945  -2.190  1.00  0.00     0.022 C 
ATOM     32  C   UNL     1      -2.146   2.971  -1.244  1.00  0.00     0.004 C 
ENDBRANCH  21  27
ENDBRANCH   5  17
TORSDOF 3
