REMARK SMILES Cc1ccc(Cl)cc1N1CCN(C(=O)c2c(C)oc3ncnc(N4CCOCC4)c23)CC1
REMARK SMILES IDX 9 1 10 2 11 3 12 4 13 5 14 6 31 7 32 8 8 9 2 10 3 11 4 12
REMARK SMILES IDX 7 13 5 14 1 15 6 16 15 17 16 18 30 19 18 20 23 21 19 22
REMARK SMILES IDX 22 23 20 24 21 25 17 26 24 27 25 28 29 29 26 30 28 31 27 32
REMARK H PARENT
ROOT
ATOM      1  N   UNL     1       2.642  -0.274   0.041  1.00  0.00    -0.368 N 
ATOM      2  C   UNL     1       2.022   1.019   0.412  1.00  0.00     0.138 C 
ATOM      3  C   UNL     1       0.494   0.913   0.588  1.00  0.00     0.141 C 
ATOM      4  N   UNL     1       0.094  -0.174   1.494  1.00  0.00    -0.335 N 
ATOM      5  C   UNL     1      -1.047  -0.183   2.284  1.00  0.00     0.258 C 
ATOM      6  O   UNL     1      -1.248  -1.042   3.139  1.00  0.00    -0.269 OA
ATOM      7  C   UNL     1       0.994  -1.329   1.554  1.00  0.00     0.141 C 
ATOM      8  C   UNL     1       1.821  -1.478   0.267  1.00  0.00     0.138 C 
ENDROOT
BRANCH   1   9
ATOM      9  C   UNL     1       3.520  -0.235  -1.047  1.00  0.00     0.041 A 
ATOM     10  C   UNL     1       4.746   0.471  -0.964  1.00  0.00    -0.028 A 
ATOM     11  C   UNL     1       5.597   0.546  -2.083  1.00  0.00     0.007 A 
ATOM     12  C   UNL     1       5.269  -0.096  -3.273  1.00  0.00     0.021 A 
ATOM     13  C   UNL     1       3.221  -0.885  -2.256  1.00  0.00     0.046 A 
ATOM     14  C   UNL     1       4.084  -0.813  -3.352  1.00  0.00     0.043 A 
ATOM     15  C   UNL     1       5.188   1.156   0.303  1.00  0.00     0.046 C 
ATOM     16  Cl  UNL     1       3.666  -1.611  -4.820  1.00  0.00    -0.084 Cl
ENDBRANCH   1   9
BRANCH   5  17
ATOM     17  C   UNL     1      -2.010   0.877   2.077  1.00  0.00     0.094 A 
ATOM     18  C   UNL     1      -2.368   1.816   3.028  1.00  0.00     0.117 A 
ATOM     19  C   UNL     1      -2.815   1.152   0.930  1.00  0.00     0.096 A 
ATOM     20  O   UNL     1      -3.282   2.685   2.514  1.00  0.00    -0.442 OA
ATOM     21  C   UNL     1      -3.024   0.592  -0.341  1.00  0.00     0.144 A 
ATOM     22  C   UNL     1      -3.550   2.286   1.240  1.00  0.00     0.232 A 
ATOM     23  N   UNL     1      -3.880   1.234  -1.176  1.00  0.00    -0.218 NA
ATOM     24  N   UNL     1      -4.414   2.933   0.449  1.00  0.00    -0.201 NA
ATOM     25  C   UNL     1      -4.514   2.342  -0.745  1.00  0.00     0.228 A 
ATOM     26  C   UNL     1      -1.952   2.049   4.427  1.00  0.00     0.088 C 
BRANCH  21  27
ATOM     27  N   UNL     1      -2.386  -0.591  -0.755  1.00  0.00    -0.351 N 
ATOM     28  C   UNL     1      -2.211  -0.698  -2.224  1.00  0.00     0.146 C 
ATOM     29  C   UNL     1      -3.082  -1.767  -0.168  1.00  0.00     0.146 C 
ATOM     30  C   UNL     1      -3.285  -1.596  -2.853  1.00  0.00     0.181 C 
ATOM     31  C   UNL     1      -2.785  -3.029  -0.992  1.00  0.00     0.181 C 
ATOM     32  O   UNL     1      -3.253  -2.943  -2.348  1.00  0.00    -0.378 OA
ENDBRANCH  21  27
ENDBRANCH   5  17
TORSDOF 3
