REMARK SMILES CCn1nnc2cc(C(=O)Nc3cccc(Cl)c3)ccc21
REMARK SMILES IDX 3 1 4 2 5 3 6 4 7 5 8 6 19 7 20 8 21 9 2 10 1 11 9 12 10 13
REMARK SMILES IDX 11 14 12 16 13 17 18 18 14 19 16 20 15 21 17 22
REMARK H PARENT 11 15
ROOT
ATOM      1  N   UNL     1      -4.156  -0.767   0.098  1.00  0.00    -0.245 N 
ATOM      2  N   UNL     1      -4.376  -1.913   0.767  1.00  0.00    -0.066 NA
ATOM      3  N   UNL     1      -3.206  -2.338   1.226  1.00  0.00    -0.130 NA
ATOM      4  C   UNL     1      -2.245  -1.448   0.832  1.00  0.00     0.113 A 
ATOM      5  C   UNL     1      -0.863  -1.440   1.059  1.00  0.00     0.046 A 
ATOM      6  C   UNL     1      -0.106  -0.391   0.514  1.00  0.00     0.042 A 
ATOM      7  C   UNL     1      -0.721   0.642  -0.213  1.00  0.00     0.016 A 
ATOM      8  C   UNL     1      -2.103   0.645  -0.441  1.00  0.00     0.031 A 
ATOM      9  C   UNL     1      -2.830  -0.423   0.095  1.00  0.00     0.089 A 
ENDROOT
BRANCH   1  10
ATOM     10  C   UNL     1      -5.265  -0.066  -0.511  1.00  0.00     0.143 C 
ATOM     11  C   UNL     1      -5.901   0.934   0.438  1.00  0.00     0.029 C 
ENDBRANCH   1  10
BRANCH   6  12
ATOM     12  C   UNL     1       1.362  -0.390   0.760  1.00  0.00     0.255 C 
ATOM     13  O   UNL     1       1.766  -0.762   1.854  1.00  0.00    -0.269 OA
ATOM     14  N   UNL     1       2.129   0.010  -0.320  1.00  0.00    -0.322 N 
ATOM     15  H   UNL     1       1.645   0.154  -1.196  1.00  0.00     0.170 HD
BRANCH  14  16
ATOM     16  C   UNL     1       3.533   0.147  -0.366  1.00  0.00     0.042 A 
ATOM     17  C   UNL     1       4.100   0.480  -1.605  1.00  0.00     0.026 A 
ATOM     18  C   UNL     1       4.371  -0.015   0.739  1.00  0.00     0.046 A 
ATOM     19  C   UNL     1       5.481   0.640  -1.740  1.00  0.00     0.004 A 
ATOM     20  C   UNL     1       5.751   0.147   0.600  1.00  0.00     0.043 A 
ATOM     21  C   UNL     1       6.310   0.473  -0.634  1.00  0.00     0.020 A 
ATOM     22  Cl  UNL     1       6.780  -0.053   1.967  1.00  0.00    -0.084 Cl
ENDBRANCH  14  16
ENDBRANCH   6  12
TORSDOF 3
