REMARK SMILES CCn1nnc2cc(C(=O)Nc3ccc(Br)cc3F)ccc21
REMARK SMILES IDX 3 1 4 2 5 3 6 4 7 5 8 6 20 7 21 8 22 9 2 10 1 11 9 12 10 13
REMARK SMILES IDX 11 14 12 16 13 17 18 18 14 19 17 20 15 21 19 22 16 23
REMARK H PARENT 11 15
ROOT
ATOM      1  N   UNL     1      -3.991   1.209   0.770  1.00  0.00    -0.245 N 
ATOM      2  N   UNL     1      -4.636   1.410  -0.394  1.00  0.00    -0.066 NA
ATOM      3  N   UNL     1      -3.808   1.073  -1.374  1.00  0.00    -0.130 NA
ATOM      4  C   UNL     1      -2.630   0.659  -0.813  1.00  0.00     0.113 A 
ATOM      5  C   UNL     1      -1.448   0.203  -1.409  1.00  0.00     0.046 A 
ATOM      6  C   UNL     1      -0.374  -0.149  -0.576  1.00  0.00     0.042 A 
ATOM      7  C   UNL     1      -0.493  -0.075   0.822  1.00  0.00     0.016 A 
ATOM      8  C   UNL     1      -1.673   0.377   1.428  1.00  0.00     0.031 A 
ATOM      9  C   UNL     1      -2.718   0.740   0.573  1.00  0.00     0.089 A 
ENDROOT
BRANCH   1  10
ATOM     10  C   UNL     1      -4.659   1.491   2.020  1.00  0.00     0.143 C 
ATOM     11  C   UNL     1      -5.416   0.287   2.551  1.00  0.00     0.029 C 
ENDBRANCH   1  10
BRANCH   6  12
ATOM     12  C   UNL     1       0.878  -0.632  -1.223  1.00  0.00     0.255 C 
ATOM     13  O   UNL     1       0.786  -1.299  -2.245  1.00  0.00    -0.269 OA
ATOM     14  N   UNL     1       2.045  -0.238  -0.599  1.00  0.00    -0.319 N 
ATOM     15  H   UNL     1       1.976   0.417   0.173  1.00  0.00     0.170 HD
BRANCH  14  16
ATOM     16  C   UNL     1       3.368  -0.568  -0.967  1.00  0.00     0.077 A 
ATOM     17  C   UNL     1       3.707  -1.427  -2.012  1.00  0.00     0.030 A 
ATOM     18  C   UNL     1       4.402   0.010  -0.215  1.00  0.00     0.147 A 
ATOM     19  C   UNL     1       5.052  -1.694  -2.297  1.00  0.00     0.018 A 
ATOM     20  C   UNL     1       5.741  -0.246  -0.488  1.00  0.00     0.057 A 
ATOM     21  C   UNL     1       6.061  -1.103  -1.535  1.00  0.00     0.021 A 
ATOM     22  F   UNL     1       4.094   0.835   0.799  1.00  0.00    -0.205 F 
ATOM     23  Br  UNL     1       7.872  -1.470  -1.928  1.00  0.00    -0.051 Br
ENDBRANCH  14  16
ENDBRANCH   6  12
TORSDOF 3
