REMARK SMILES CCn1nnc2cc(C(=O)Nc3ccc(C)cc3Br)ccc21
REMARK SMILES IDX 3 1 4 2 5 3 6 4 7 5 8 6 20 7 21 8 22 9 2 10 1 11 9 12 10 13
REMARK SMILES IDX 11 14 12 16 13 17 18 18 14 19 17 20 15 21 19 22 16 23
REMARK H PARENT 11 15
ROOT
ATOM      1  N   UNL     1      -4.821  -0.392   0.686  1.00  0.00    -0.245 N 
ATOM      2  N   UNL     1      -5.123   0.093   1.904  1.00  0.00    -0.066 NA
ATOM      3  N   UNL     1      -4.011   0.601   2.419  1.00  0.00    -0.130 NA
ATOM      4  C   UNL     1      -3.002   0.426   1.511  1.00  0.00     0.113 A 
ATOM      5  C   UNL     1      -1.650   0.784   1.572  1.00  0.00     0.046 A 
ATOM      6  C   UNL     1      -0.826   0.464   0.480  1.00  0.00     0.042 A 
ATOM      7  C   UNL     1      -1.353  -0.170  -0.658  1.00  0.00     0.016 A 
ATOM      8  C   UNL     1      -2.705  -0.529  -0.729  1.00  0.00     0.031 A 
ATOM      9  C   UNL     1      -3.496  -0.217   0.381  1.00  0.00     0.089 A 
ENDROOT
BRANCH   1  10
ATOM     10  C   UNL     1      -5.853  -1.007  -0.119  1.00  0.00     0.143 C 
ATOM     11  C   UNL     1      -6.568  -0.000  -1.002  1.00  0.00     0.029 C 
ENDBRANCH   1  10
BRANCH   6  12
ATOM     12  C   UNL     1       0.611   0.847   0.556  1.00  0.00     0.255 C 
ATOM     13  O   UNL     1       0.903   1.894   1.121  1.00  0.00    -0.269 OA
ATOM     14  N   UNL     1       1.482  -0.064  -0.007  1.00  0.00    -0.321 N 
ATOM     15  H   UNL     1       1.098  -0.947  -0.324  1.00  0.00     0.170 HD
BRANCH  14  16
ATOM     16  C   UNL     1       2.890   0.031  -0.119  1.00  0.00     0.055 A 
ATOM     17  C   UNL     1       3.613   1.157   0.280  1.00  0.00     0.027 A 
ATOM     18  C   UNL     1       3.597  -1.052  -0.672  1.00  0.00     0.041 A 
ATOM     19  C   UNL     1       5.007   1.198   0.143  1.00  0.00     0.005 A 
ATOM     20  C   UNL     1       4.989  -1.013  -0.810  1.00  0.00     0.021 A 
ATOM     21  C   UNL     1       5.707   0.111  -0.389  1.00  0.00    -0.050 A 
ATOM     22  Br  UNL     1       2.695  -2.622  -1.265  1.00  0.00    -0.049 Br
ATOM     23  C   UNL     1       7.195   0.175  -0.563  1.00  0.00     0.044 C 
ENDBRANCH  14  16
ENDBRANCH   6  12
TORSDOF 3
