REMARK SMILES O=C1OC(=O)C2C3CCC(O3)C12
REMARK SMILES IDX 1 1 2 2 3 3 4 4 5 5 6 6 7 7 8 8 9 9 10 10 11 11 12 12
REMARK H PARENT
ROOT
ATOM      1  O   UNL     1       2.570  -1.796  -1.125  1.00  0.00    -0.251 OA
ATOM      2  C   UNL     1       2.082  -0.756  -0.711  1.00  0.00     0.320 C 
ATOM      3  O   UNL     1       2.561   0.478  -0.989  1.00  0.00    -0.393 OA
ATOM      4  C   UNL     1       1.791   1.428  -0.409  1.00  0.00     0.320 C 
ATOM      5  O   UNL     1       1.980   2.629  -0.514  1.00  0.00    -0.251 OA
ATOM      6  C   UNL     1       0.700   0.809   0.396  1.00  0.00     0.145 C 
ATOM      7  C   UNL     1      -0.665   1.052  -0.233  1.00  0.00     0.134 C 
ATOM      8  C   UNL     1      -1.763   0.456   0.649  1.00  0.00     0.036 C 
ATOM      9  C   UNL     1      -1.562  -1.050   0.441  1.00  0.00     0.036 C 
ATOM     10  C   UNL     1      -0.380  -1.087  -0.528  1.00  0.00     0.134 C 
ATOM     11  O   UNL     1      -0.656   0.095  -1.320  1.00  0.00    -0.373 OA
ATOM     12  C   UNL     1       0.898  -0.676   0.191  1.00  0.00     0.145 C 
ENDROOT
TORSDOF 0
