REMARK SMILES CCN1c2ccccc2-c2nc(SCC(=O)Nc3c(C)cc(C)cc3C)ncc2S1(=O)=O
REMARK SMILES IDX 13 1 12 2 3 3 4 4 30 5 5 6 9 7 29 8 31 9 32 10 6 11 8 12
REMARK SMILES IDX 10 13 28 14 7 15 11 16 27 17 2 18 1 19 14 20 15 21 16 22
REMARK SMILES IDX 17 23 18 25 19 26 25 27 21 28 24 29 22 30 20 31 26 32 23 33
REMARK H PARENT 17 24
ROOT
ATOM      1  S   UNL     1      -0.710   1.742   0.418  1.00  0.00    -0.076 SA
ENDROOT
BRANCH   1   2
ATOM      2  C   UNL     1       1.038   1.729   0.129  1.00  0.00     0.188 A 
ATOM      3  N   UNL     1       5.657   0.134  -1.009  1.00  0.00    -0.266 N 
ATOM      4  C   UNL     1       5.106  -0.833  -0.073  1.00  0.00     0.061 A 
ATOM      5  S   UNL     1       5.381   1.765  -0.596  1.00  0.00     0.268 S 
ATOM      6  C   UNL     1       5.757  -2.047   0.193  1.00  0.00     0.028 A 
ATOM      7  C   UNL     1       3.825  -0.594   0.488  1.00  0.00     0.026 A 
ATOM      8  C   UNL     1       3.681   1.767  -0.306  1.00  0.00     0.132 A 
ATOM      9  O   UNL     1       5.625   2.572  -1.773  1.00  0.00    -0.201 OA
ATOM     10  O   UNL     1       6.032   2.054   0.663  1.00  0.00    -0.201 OA
ATOM     11  C   UNL     1       5.187  -2.999   1.041  1.00  0.00     0.002 A 
ATOM     12  C   UNL     1       3.272  -1.574   1.339  1.00  0.00     0.012 A 
ATOM     13  C   UNL     1       3.077   0.642   0.189  1.00  0.00     0.098 A 
ATOM     14  C   UNL     1       2.898   2.853  -0.590  1.00  0.00     0.138 A 
ATOM     15  C   UNL     1       3.947  -2.762   1.617  1.00  0.00     0.001 A 
ATOM     16  N   UNL     1       1.739   0.619   0.417  1.00  0.00    -0.221 NA
ATOM     17  N   UNL     1       1.568   2.856  -0.376  1.00  0.00    -0.230 NA
BRANCH   3  18
ATOM     18  C   UNL     1       6.912  -0.130  -1.758  1.00  0.00     0.132 C 
ATOM     19  C   UNL     1       8.166   0.162  -0.950  1.00  0.00     0.028 C 
ENDBRANCH   3  18
ENDBRANCH   1   2
BRANCH   1  20
ATOM     20  C   UNL     1      -0.990  -0.036   0.693  1.00  0.00     0.178 C 
BRANCH  20  21
ATOM     21  C   UNL     1      -2.466  -0.331   0.911  1.00  0.00     0.234 C 
ATOM     22  O   UNL     1      -2.829  -1.028   1.854  1.00  0.00    -0.274 OA
ATOM     23  N   UNL     1      -3.286   0.226  -0.060  1.00  0.00    -0.325 N 
ATOM     24  H   UNL     1      -2.892   1.066  -0.468  1.00  0.00     0.169 HD
BRANCH  23  25
ATOM     25  C   UNL     1      -4.694   0.095  -0.139  1.00  0.00     0.047 A 
ATOM     26  C   UNL     1      -5.369  -1.129   0.047  1.00  0.00    -0.027 A 
ATOM     27  C   UNL     1      -5.438   1.251  -0.482  1.00  0.00    -0.027 A 
ATOM     28  C   UNL     1      -6.777  -1.154  -0.011  1.00  0.00     0.009 A 
ATOM     29  C   UNL     1      -6.841   1.183  -0.558  1.00  0.00     0.009 A 
ATOM     30  C   UNL     1      -7.518  -0.013  -0.322  1.00  0.00    -0.050 A 
ATOM     31  C   UNL     1      -4.686  -2.453   0.266  1.00  0.00     0.046 C 
ATOM     32  C   UNL     1      -4.786   2.587  -0.732  1.00  0.00     0.046 C 
ATOM     33  C   UNL     1      -9.017  -0.062  -0.354  1.00  0.00     0.044 C 
ENDBRANCH  23  25
ENDBRANCH  20  21
ENDBRANCH   1  20
TORSDOF 5
