REMARK SMILES Cc1cc(C)c(NC(=O)CSc2ncc3c(n2)-c2cc(Cl)ccc2N(C)S3(=O)=O)c(C)c1
REMARK SMILES IDX 10 1 8 2 7 3 9 4 6 6 2 7 3 8 32 9 4 10 30 11 1 12 5 13 31 14
REMARK SMILES IDX 11 15 12 16 13 17 17 18 14 19 16 20 15 21 18 22 27 23 19 24
REMARK SMILES IDX 24 25 25 26 28 27 29 28 20 29 23 30 22 31 26 32 21 33
REMARK H PARENT 7 5
ROOT
ATOM      1  C   UNL     1       1.147   3.063  -2.255  1.00  0.00     0.178 C 
ENDROOT
BRANCH   1   2
ATOM      2  C   UNL     1       1.971   1.789  -2.322  1.00  0.00     0.234 C 
ATOM      3  N   UNL     1       2.328   1.296  -1.075  1.00  0.00    -0.325 N 
ATOM      4  O   UNL     1       2.257   1.276  -3.401  1.00  0.00    -0.274 OA
ATOM      5  H   UNL     1       1.643   1.487  -0.350  1.00  0.00     0.169 HD
BRANCH   3   6
ATOM      6  C   UNL     1       3.214   0.209  -0.856  1.00  0.00     0.047 A 
ATOM      7  C   UNL     1       4.896  -2.018  -0.354  1.00  0.00    -0.050 A 
ATOM      8  C   UNL     1       5.239  -1.066  -1.314  1.00  0.00     0.009 A 
ATOM      9  C   UNL     1       3.737  -1.822   0.397  1.00  0.00     0.009 A 
ATOM     10  C   UNL     1       4.431   0.063  -1.559  1.00  0.00    -0.027 A 
ATOM     11  C   UNL     1       2.892  -0.722   0.160  1.00  0.00    -0.027 A 
ATOM     12  C   UNL     1       5.795  -3.187  -0.083  1.00  0.00     0.044 C 
ATOM     13  C   UNL     1       4.971   1.066  -2.544  1.00  0.00     0.046 C 
ATOM     14  C   UNL     1       1.644  -0.612   0.993  1.00  0.00     0.046 C 
ENDBRANCH   3   6
ENDBRANCH   1   2
BRANCH   1  15
ATOM     15  S   UNL     1      -0.601   2.721  -2.601  1.00  0.00    -0.076 SA
BRANCH  15  16
ATOM     16  C   UNL     1      -1.132   2.057  -1.050  1.00  0.00     0.188 A 
ATOM     17  N   UNL     1      -0.363   2.236   0.042  1.00  0.00    -0.230 NA
ATOM     18  N   UNL     1      -2.331   1.448  -1.044  1.00  0.00    -0.221 NA
ATOM     19  C   UNL     1      -0.884   1.806   1.211  1.00  0.00     0.138 A 
ATOM     20  C   UNL     1      -2.808   0.990   0.138  1.00  0.00     0.098 A 
ATOM     21  C   UNL     1      -2.100   1.182   1.292  1.00  0.00     0.132 A 
ATOM     22  C   UNL     1      -4.106   0.292   0.109  1.00  0.00     0.028 A 
ATOM     23  S   UNL     1      -2.719   0.584   2.785  1.00  0.00     0.267 S 
ATOM     24  C   UNL     1      -4.970   0.442  -0.998  1.00  0.00     0.033 A 
ATOM     25  C   UNL     1      -4.515  -0.545   1.180  1.00  0.00     0.061 A 
ATOM     26  N   UNL     1      -3.593  -0.797   2.280  1.00  0.00    -0.269 N 
ATOM     27  O   UNL     1      -1.588   0.135   3.570  1.00  0.00    -0.201 OA
ATOM     28  O   UNL     1      -3.649   1.566   3.298  1.00  0.00    -0.201 OA
ATOM     29  C   UNL     1      -6.188  -0.229  -1.056  1.00  0.00     0.041 A 
ATOM     30  C   UNL     1      -5.731  -1.241   1.082  1.00  0.00     0.029 A 
ATOM     31  C   UNL     1      -6.570  -1.072  -0.022  1.00  0.00     0.023 A 
ATOM     32  C   UNL     1      -4.037  -1.636   3.417  1.00  0.00     0.164 C 
ATOM     33  Cl  UNL     1      -7.219  -0.023  -2.416  1.00  0.00    -0.084 Cl
ENDBRANCH  15  16
ENDBRANCH   1  15
TORSDOF 4
