REMARK SMILES Cc1ccc(C(=O)Nc2nc(-c3nnn(-c4cccc(C(F)(F)F)c4)c3C)ns2)cc1
REMARK SMILES IDX 9 1 10 2 11 3 28 4 29 5 8 6 6 7 7 8 5 10 2 11 3 12 31 13
REMARK SMILES IDX 4 14 30 15 1 16 12 17 13 18 26 19 14 20 15 21 27 22 16 23
REMARK SMILES IDX 17 24 25 25 18 26 20 27 19 28 21 29 22 30 23 31 24 32
REMARK H PARENT 8 9
ROOT
ATOM      1  C   UNL     1       1.871  -0.128   1.015  1.00  0.00     0.209 A 
ATOM      2  N   UNL     1       0.878  -0.107   0.160  1.00  0.00    -0.196 NA
ATOM      3  C   UNL     1      -0.318  -0.147   0.878  1.00  0.00     0.197 A 
ATOM      4  N   UNL     1      -0.276  -0.185   2.214  1.00  0.00    -0.167 NA
ATOM      5  S   UNL     1       1.342  -0.183   2.635  1.00  0.00     0.005 S 
ENDROOT
BRANCH   1   6
ATOM      6  N   UNL     1       3.181  -0.090   0.618  1.00  0.00    -0.297 N 
ATOM      7  C   UNL     1       4.279  -0.163   1.442  1.00  0.00     0.257 C 
ATOM      8  O   UNL     1       4.270  -0.325   2.657  1.00  0.00    -0.269 OA
ATOM      9  H   UNL     1       3.292  -0.073  -0.386  1.00  0.00     0.172 HD
BRANCH   7  10
ATOM     10  C   UNL     1       5.594  -0.071   0.746  1.00  0.00     0.040 A 
ATOM     11  C   UNL     1       8.108   0.043  -0.506  1.00  0.00    -0.051 A 
ATOM     12  C   UNL     1       7.028   0.776  -1.015  1.00  0.00     0.004 A 
ATOM     13  C   UNL     1       7.929  -0.720   0.654  1.00  0.00     0.004 A 
ATOM     14  C   UNL     1       5.776   0.720  -0.395  1.00  0.00     0.014 A 
ATOM     15  C   UNL     1       6.680  -0.778   1.276  1.00  0.00     0.014 A 
ATOM     16  C   UNL     1       9.459   0.133  -1.153  1.00  0.00     0.044 C 
ENDBRANCH   7  10
ENDBRANCH   1   6
BRANCH   3  17
ATOM     17  C   UNL     1      -1.582  -0.123   0.125  1.00  0.00     0.154 A 
ATOM     18  N   UNL     1      -1.563   0.067  -1.225  1.00  0.00    -0.126 NA
ATOM     19  C   UNL     1      -2.888  -0.299   0.556  1.00  0.00     0.073 A 
ATOM     20  N   UNL     1      -2.812   0.036  -1.659  1.00  0.00    -0.061 NA
ATOM     21  N   UNL     1      -3.646  -0.084  -0.592  1.00  0.00    -0.217 N 
ATOM     22  C   UNL     1      -3.404  -0.685   1.890  1.00  0.00     0.069 C 
BRANCH  21  23
ATOM     23  C   UNL     1      -5.055   0.028  -0.792  1.00  0.00     0.067 A 
ATOM     24  C   UNL     1      -5.563  -0.055  -2.100  1.00  0.00     0.028 A 
ATOM     25  C   UNL     1      -5.948   0.258   0.263  1.00  0.00     0.041 A 
ATOM     26  C   UNL     1      -6.933   0.054  -2.343  1.00  0.00     0.003 A 
ATOM     27  C   UNL     1      -7.334   0.362   0.028  1.00  0.00     0.058 A 
ATOM     28  C   UNL     1      -7.815   0.260  -1.285  1.00  0.00     0.013 A 
BRANCH  27  29
ATOM     29  C   UNL     1      -8.283   0.631   1.171  1.00  0.00     0.416 C 
ATOM     30  F   UNL     1      -9.538   0.149   0.954  1.00  0.00    -0.166 F 
ATOM     31  F   UNL     1      -8.428   1.961   1.420  1.00  0.00    -0.166 F 
ATOM     32  F   UNL     1      -7.868   0.074   2.343  1.00  0.00    -0.166 F 
ENDBRANCH  27  29
ENDBRANCH  21  23
ENDBRANCH   3  17
TORSDOF 5
