REMARK SMILES CC1=C(c2ccc(C)cc2)S(=O)(=O)N(Cc2ccc(C(=O)Nc3ccc(F)cc3C)cc2)C1=O
REMARK SMILES IDX 16 1 17 2 18 3 19 4 31 5 32 6 15 7 14 8 2 9 3 10 33 11 11 12
REMARK SMILES IDX 34 13 12 14 13 15 1 16 4 17 5 18 10 19 6 20 9 21 7 22 8 23
REMARK SMILES IDX 20 24 21 25 22 26 23 28 24 29 29 30 25 31 28 32 26 33 30 34
REMARK SMILES IDX 27 35
REMARK H PARENT 22 27
ROOT
ATOM      1  C   UNL     1      -0.462   0.259   2.036  1.00  0.00    -0.027 A 
ATOM      2  C   UNL     1      -0.992   0.970   0.949  1.00  0.00     0.006 A 
ATOM      3  C   UNL     1      -2.201   0.581   0.365  1.00  0.00     0.014 A 
ATOM      4  C   UNL     1      -2.897  -0.526   0.867  1.00  0.00     0.040 A 
ATOM      5  C   UNL     1      -2.359  -1.257   1.931  1.00  0.00     0.014 A 
ATOM      6  C   UNL     1      -1.150  -0.866   2.512  1.00  0.00     0.006 A 
ENDROOT
BRANCH   1   7
ATOM      7  C   UNL     1       0.862   0.662   2.642  1.00  0.00     0.174 C 
BRANCH   7   8
ATOM      8  N   UNL     1       1.992   0.056   1.965  1.00  0.00    -0.227 N 
ATOM      9  C   UNL     1       3.666  -1.464   1.231  1.00  0.00     0.036 C 
ATOM     10  C   UNL     1       4.014  -0.335   0.597  1.00  0.00     0.103 C 
ATOM     11  C   UNL     1       2.460  -1.260   2.087  1.00  0.00     0.264 C 
ATOM     12  S   UNL     1       2.975   0.980   0.986  1.00  0.00     0.268 S 
ATOM     13  O   UNL     1       1.970  -2.115   2.804  1.00  0.00    -0.268 OA
ATOM     14  O   UNL     1       2.194   1.396  -0.158  1.00  0.00    -0.201 OA
ATOM     15  O   UNL     1       3.646   1.938   1.837  1.00  0.00    -0.201 OA
ATOM     16  C   UNL     1       4.306  -2.802   1.177  1.00  0.00     0.052 C 
BRANCH  10  17
ATOM     17  C   UNL     1       5.103  -0.010  -0.304  1.00  0.00    -0.005 A 
ATOM     18  C   UNL     1       4.872   0.176  -1.671  1.00  0.00     0.010 A 
ATOM     19  C   UNL     1       6.411   0.084   0.185  1.00  0.00     0.010 A 
ATOM     20  C   UNL     1       5.932   0.463  -2.535  1.00  0.00     0.004 A 
ATOM     21  C   UNL     1       7.470   0.371  -0.680  1.00  0.00     0.004 A 
ATOM     22  C   UNL     1       7.241   0.551  -2.049  1.00  0.00    -0.051 A 
ATOM     23  C   UNL     1       8.373   0.896  -2.971  1.00  0.00     0.044 C 
ENDBRANCH  10  17
ENDBRANCH   7   8
ENDBRANCH   1   7
BRANCH   4  24
ATOM     24  C   UNL     1      -4.188  -0.976   0.272  1.00  0.00     0.255 C 
ATOM     25  O   UNL     1      -4.422  -2.178   0.239  1.00  0.00    -0.269 OA
ATOM     26  N   UNL     1      -5.017   0.048  -0.151  1.00  0.00    -0.322 N 
ATOM     27  H   UNL     1      -4.722   0.984   0.087  1.00  0.00     0.170 HD
BRANCH  26  28
ATOM     28  C   UNL     1      -6.275  -0.062  -0.791  1.00  0.00     0.044 A 
ATOM     29  C   UNL     1      -6.810  -1.297  -1.184  1.00  0.00     0.029 A 
ATOM     30  C   UNL     1      -7.009   1.119  -1.055  1.00  0.00    -0.025 A 
ATOM     31  C   UNL     1      -8.052  -1.373  -1.820  1.00  0.00     0.041 A 
ATOM     32  C   UNL     1      -8.257   1.025  -1.696  1.00  0.00     0.044 A 
ATOM     33  C   UNL     1      -8.764  -0.212  -2.070  1.00  0.00     0.123 A 
ATOM     34  C   UNL     1      -6.508   2.486  -0.672  1.00  0.00     0.047 C 
ATOM     35  F   UNL     1      -9.954  -0.282  -2.680  1.00  0.00    -0.207 F 
ENDBRANCH  26  28
ENDBRANCH   4  24
TORSDOF 5
