REMARK SMILES Cc1ccc(C)c(N2CCN(C(=O)c3c4c(nc5ccccc35)C(=O)N(C3CCCCC3)C4)CC2)c1
REMARK SMILES IDX 8 1 9 2 10 3 11 4 12 5 13 6 34 7 35 8 7 9 2 10 3 11 36 12
REMARK SMILES IDX 4 13 5 14 1 15 6 16 14 17 15 18 23 19 16 20 33 21 22 22
REMARK SMILES IDX 18 23 17 24 24 25 26 26 21 27 19 28 25 29 20 30 27 31 28 32
REMARK SMILES IDX 32 33 29 34 31 35 30 36
REMARK H PARENT
ROOT
ATOM      1  N   UNL     1      -3.669   0.215   1.032  1.00  0.00    -0.368 N 
ATOM      2  C   UNL     1      -2.850  -0.439   2.078  1.00  0.00     0.138 C 
ATOM      3  C   UNL     1      -1.962   0.582   2.808  1.00  0.00     0.141 C 
ATOM      4  N   UNL     1      -1.054   1.277   1.887  1.00  0.00    -0.335 N 
ATOM      5  C   UNL     1       0.212   1.622   2.333  1.00  0.00     0.255 C 
ATOM      6  O   UNL     1       0.633   1.408   3.464  1.00  0.00    -0.269 OA
ATOM      7  C   UNL     1      -1.548   1.467   0.512  1.00  0.00     0.141 C 
ATOM      8  C   UNL     1      -3.083   1.418   0.405  1.00  0.00     0.138 C 
ENDROOT
BRANCH   1   9
ATOM      9  C   UNL     1      -4.255  -0.722   0.161  1.00  0.00     0.040 A 
ATOM     10  C   UNL     1      -4.136  -2.185  -1.805  1.00  0.00    -0.049 A 
ATOM     11  C   UNL     1      -5.426  -2.643  -1.536  1.00  0.00     0.004 A 
ATOM     12  C   UNL     1      -3.566  -1.222  -0.960  1.00  0.00     0.029 A 
ATOM     13  C   UNL     1      -6.125  -2.162  -0.429  1.00  0.00     0.006 A 
ATOM     14  C   UNL     1      -5.555  -1.201   0.421  1.00  0.00    -0.028 A 
ATOM     15  C   UNL     1      -3.390  -2.674  -3.010  1.00  0.00     0.044 C 
ATOM     16  C   UNL     1      -6.346  -0.708   1.603  1.00  0.00     0.046 C 
ENDBRANCH   1   9
BRANCH   5  17
ATOM     17  C   UNL     1       1.140   2.233   1.371  1.00  0.00     0.056 A 
ATOM     18  C   UNL     1       2.004   1.398   0.699  1.00  0.00     0.016 A 
ATOM     19  C   UNL     1       1.175   3.627   1.134  1.00  0.00     0.013 A 
ATOM     20  C   UNL     1       2.845   1.971  -0.222  1.00  0.00     0.134 A 
ATOM     21  C   UNL     1       2.214  -0.068   0.773  1.00  0.00     0.159 C 
ATOM     22  C   UNL     1       0.356   4.561   1.810  1.00  0.00     0.011 A 
ATOM     23  C   UNL     1       2.093   4.090   0.152  1.00  0.00     0.072 A 
ATOM     24  N   UNL     1       2.914   3.275  -0.533  1.00  0.00    -0.242 NA
ATOM     25  C   UNL     1       3.649   0.897  -0.841  1.00  0.00     0.273 C 
ATOM     26  N   UNL     1       3.258  -0.285  -0.215  1.00  0.00    -0.330 N 
ATOM     27  C   UNL     1       0.434   5.921   1.517  1.00  0.00     0.001 A 
ATOM     28  C   UNL     1       2.143   5.450  -0.116  1.00  0.00     0.029 A 
ATOM     29  O   UNL     1       4.469   1.032  -1.728  1.00  0.00    -0.267 OA
ATOM     30  C   UNL     1       1.326   6.366   0.552  1.00  0.00     0.002 A 
BRANCH  26  31
ATOM     31  C   UNL     1       3.753  -1.622  -0.530  1.00  0.00     0.085 C 
ATOM     32  C   UNL     1       5.270  -1.740  -0.352  1.00  0.00     0.025 C 
ATOM     33  C   UNL     1       3.310  -2.081  -1.931  1.00  0.00     0.025 C 
ATOM     34  C   UNL     1       5.746  -3.186  -0.515  1.00  0.00     0.002 C 
ATOM     35  C   UNL     1       4.230  -3.141  -2.541  1.00  0.00     0.002 C 
ATOM     36  C   UNL     1       4.885  -4.010  -1.476  1.00  0.00     0.000 C 
ENDBRANCH  26  31
ENDBRANCH   5  17
TORSDOF 3
