REMARK SMILES O=C(NCc1cccc(Br)c1)c1ccc(NC(=O)N2CCCCc3ccccc32)cc1
REMARK SMILES IDX 12 1 13 2 14 3 15 4 30 5 31 6 2 7 1 8 3 9 4 11 5 12 6 13
REMARK SMILES IDX 11 14 7 15 9 16 8 17 10 18 16 19 17 20 18 21 19 23 20 24
REMARK SMILES IDX 21 25 22 26 29 28 28 29 24 30 27 31 25 32 26 33 23 34
REMARK H PARENT 3 10 16 22
REMARK Flexibility Score:   62.900
ROOT
ATOM      1  C   UNL     1       2.371   0.920  -1.022  1.00  0.00     0.039 A 
ATOM      2  C   UNL     1       1.581   1.717  -0.189  1.00  0.00     0.016 A 
ATOM      3  C   UNL     1       0.250   1.369   0.064  1.00  0.00     0.027 A 
ATOM      4  C   UNL     1      -0.311   0.224  -0.516  1.00  0.00     0.042 A 
ATOM      5  C   UNL     1       0.475  -0.557  -1.365  1.00  0.00     0.027 A 
ATOM      6  C   UNL     1       1.808  -0.212  -1.621  1.00  0.00     0.016 A 
ENDROOT
BRANCH   1   7
ATOM      7  C   UNL     1       3.783   1.326  -1.263  1.00  0.00     0.251 C 
ATOM      8  O   UNL     1       4.109   2.503  -1.153  1.00  0.00    -0.269 OA
ATOM      9  N   UNL     1       4.666   0.313  -1.572  1.00  0.00    -0.348 N 
ATOM     10  H   UNL     1       4.383  -0.643  -1.411  1.00  0.00     0.164 HD
BRANCH   9  11
ATOM     11  C   UNL     1       6.085   0.562  -1.690  1.00  0.00     0.152 C 
BRANCH  11  12
ATOM     12  C   UNL     1       6.800   0.208  -0.412  1.00  0.00    -0.028 A 
ATOM     13  C   UNL     1       6.831   1.119   0.655  1.00  0.00     0.005 A 
ATOM     14  C   UNL     1       7.410  -1.045  -0.254  1.00  0.00     0.021 A 
ATOM     15  C   UNL     1       7.471   0.791   1.851  1.00  0.00     0.002 A 
ATOM     16  C   UNL     1       8.048  -1.366   0.945  1.00  0.00     0.018 A 
ATOM     17  C   UNL     1       8.083  -0.453   1.997  1.00  0.00     0.016 A 
ATOM     18  Br  UNL     1       8.870  -3.057   1.144  1.00  0.00    -0.051 Br
ENDBRANCH  11  12
ENDBRANCH   9  11
ENDBRANCH   1   7
BRANCH   4  19
ATOM     19  N   UNL     1      -1.658  -0.051  -0.216  1.00  0.00    -0.308 N 
ATOM     20  C   UNL     1      -2.411  -1.154  -0.582  1.00  0.00     0.326 C 
ATOM     21  O   UNL     1      -1.968  -2.145  -1.158  1.00  0.00    -0.248 OA
ATOM     22  H   UNL     1      -2.123   0.585   0.416  1.00  0.00     0.171 HD
BRANCH  20  23
ATOM     23  N   UNL     1      -3.757  -1.072  -0.150  1.00  0.00    -0.294 N 
BRANCH  23  24
ATOM     24  C   UNL     1      -4.550  -2.293  -0.321  1.00  0.00     0.127 C 
BRANCH  24  25
ATOM     25  C   UNL     1      -5.745  -2.461   0.612  1.00  0.00     0.022 C 
BRANCH  25  26
ATOM     26  C   UNL     1      -5.442  -1.904   1.994  1.00  0.00     0.007 CG0
ATOM     27  G   UNL     1      -5.724  -0.406   2.079  1.00  0.00     0.000 G0
ENDBRANCH  25  26
ENDBRANCH  24  25
ENDBRANCH  23  24
BRANCH  23  28
ATOM     28  C   UNL     1      -4.473   0.166  -0.127  1.00  0.00     0.049 A 
ATOM     29  C   UNL     1      -4.239   1.106  -1.150  1.00  0.00     0.027 A 
ATOM     30  C   UNL     1      -5.398   0.471   0.888  1.00  0.00    -0.024 A 
ATOM     31  C   UNL     1      -4.892   2.338  -1.168  1.00  0.00     0.002 A 
ATOM     32  C   UNL     1      -6.038   1.729   0.856  1.00  0.00     0.006 A 
ATOM     33  C   UNL     1      -5.792   2.651  -0.160  1.00  0.00     0.000 A 
BRANCH  30  34
ATOM     34  C   UNL     1      -5.724  -0.406   2.079  1.00  0.00     0.038 CG0
ATOM     35  G   UNL     1      -5.442  -1.904   1.994  1.00  0.00     0.000 G0
ENDBRANCH  30  34
ENDBRANCH  23  28
ENDBRANCH  20  23
ENDBRANCH   4  19
TORSDOF 5
