REMARK SMILES O=C(Cc1ccc(NC(=O)N2CCCCc3ccccc32)cc1)NCc1ccccc1Br
REMARK SMILES IDX 4 1 5 2 6 3 7 4 22 5 23 6 3 7 2 8 1 9 24 10 25 12 26 13
REMARK SMILES IDX 27 14 31 15 28 16 30 17 29 18 32 19 8 20 9 21 10 22 11 24
REMARK SMILES IDX 12 25 21 27 20 28 16 29 19 30 17 31 18 32 15 33 14 34 13 35
REMARK H PARENT 24 11 8 23
REMARK Flexibility Score:   87.900
ROOT
ATOM      1  C   UNL     1       1.419  -1.697   2.999  1.00  0.00    -0.039 A 
ATOM      2  C   UNL     1       0.157  -1.171   3.299  1.00  0.00     0.006 A 
ATOM      3  C   UNL     1      -0.809  -1.019   2.299  1.00  0.00     0.026 A 
ATOM      4  C   UNL     1      -0.532  -1.394   0.985  1.00  0.00     0.042 A 
ATOM      5  C   UNL     1       0.728  -1.926   0.685  1.00  0.00     0.026 A 
ATOM      6  C   UNL     1       1.695  -2.081   1.683  1.00  0.00     0.006 A 
ENDROOT
BRANCH   1   7
ATOM      7  C   UNL     1       2.478  -1.797   4.073  1.00  0.00     0.135 C 
BRANCH   7   8
ATOM      8  C   UNL     1       2.994  -0.446   4.549  1.00  0.00     0.224 C 
ATOM      9  O   UNL     1       3.136  -0.187   5.741  1.00  0.00    -0.275 OA
ATOM     10  N   UNL     1       3.347   0.429   3.543  1.00  0.00    -0.352 N 
ATOM     11  H   UNL     1       2.941   0.260   2.631  1.00  0.00     0.163 HD
BRANCH  10  12
ATOM     12  C   UNL     1       3.661   1.803   3.856  1.00  0.00     0.152 C 
BRANCH  12  13
ATOM     13  C   UNL     1       4.205   2.527   2.650  1.00  0.00    -0.015 A 
ATOM     14  C   UNL     1       5.583   2.802   2.594  1.00  0.00     0.007 A 
ATOM     15  C   UNL     1       3.403   2.923   1.566  1.00  0.00     0.022 A 
ATOM     16  C   UNL     1       6.141   3.466   1.500  1.00  0.00     0.000 A 
ATOM     17  C   UNL     1       3.965   3.589   0.470  1.00  0.00     0.016 A 
ATOM     18  C   UNL     1       5.332   3.862   0.439  1.00  0.00     0.001 A 
ATOM     19  Br  UNL     1       1.537   2.568   1.500  1.00  0.00    -0.050 Br
ENDBRANCH  12  13
ENDBRANCH  10  12
ENDBRANCH   7   8
ENDBRANCH   1   7
BRANCH   4  20
ATOM     20  N   UNL     1      -1.434  -1.240  -0.083  1.00  0.00    -0.308 N 
ATOM     21  C   UNL     1      -2.759  -0.845  -0.037  1.00  0.00     0.326 C 
ATOM     22  O   UNL     1      -3.408  -0.713   0.998  1.00  0.00    -0.248 OA
ATOM     23  H   UNL     1      -1.116  -1.545  -0.992  1.00  0.00     0.171 HD
BRANCH  21  24
ATOM     24  N   UNL     1      -3.337  -0.677  -1.312  1.00  0.00    -0.294 N 
BRANCH  24  25
ATOM     25  C   UNL     1      -4.781  -0.431  -1.391  1.00  0.00     0.127 CG0
ATOM     26  G   UNL     1      -5.547  -1.591  -2.012  1.00  0.00     0.000 G0
ENDBRANCH  24  25
BRANCH  24  27
ATOM     27  C   UNL     1      -2.597  -0.331  -2.481  1.00  0.00     0.049 A 
ATOM     28  C   UNL     1      -1.592   0.649  -2.400  1.00  0.00     0.027 A 
ATOM     29  C   UNL     1      -2.885  -0.932  -3.719  1.00  0.00    -0.024 A 
ATOM     30  C   UNL     1      -0.882   1.038  -3.534  1.00  0.00     0.002 A 
ATOM     31  C   UNL     1      -2.158  -0.526  -4.854  1.00  0.00     0.006 A 
ATOM     32  C   UNL     1      -1.168   0.453  -4.762  1.00  0.00     0.000 A 
BRANCH  29  33
ATOM     33  C   UNL     1      -3.860  -2.078  -3.857  1.00  0.00     0.038 C 
BRANCH  33  34
ATOM     34  C   UNL     1      -5.303  -1.727  -3.512  1.00  0.00     0.007 C 
BRANCH  34  35
ATOM     35  C   UNL     1      -5.547  -1.591  -2.012  1.00  0.00     0.022 CG0
ATOM     36  G   UNL     1      -4.781  -0.431  -1.391  1.00  0.00     0.000 G0
ENDBRANCH  34  35
ENDBRANCH  33  34
ENDBRANCH  29  33
ENDBRANCH  24  27
ENDBRANCH  21  24
ENDBRANCH   4  20
TORSDOF 6
