REMARK SMILES Cc1c(C(=O)N2CCOCC2)c(S(=O)(=O)Nc2ccc(Br)cc2F)c(C)n1C
REMARK SMILES IDX 13 1 14 2 15 3 12 4 2 5 3 6 27 7 25 8 1 9 28 10 26 11 4 12
REMARK SMILES IDX 5 13 6 14 7 15 11 16 8 17 10 18 9 19 16 20 17 22 18 23 23 24
REMARK SMILES IDX 19 25 22 26 20 27 24 28 21 29
REMARK H PARENT 16 21
ROOT
ATOM      1  S   UNL     1       0.925   0.492  -2.271  1.00  0.00     0.264 S 
ATOM      2  O   UNL     1       0.684   1.526  -3.255  1.00  0.00    -0.201 OA
ATOM      3  O   UNL     1       0.294  -0.803  -2.386  1.00  0.00    -0.201 OA
ENDROOT
BRANCH   1   4
ATOM      4  C   UNL     1       0.334   1.187  -0.790  1.00  0.00     0.121 A 
ATOM      5  C   UNL     1      -0.604   1.384   1.260  1.00  0.00     0.029 A 
ATOM      6  C   UNL     1      -0.301   0.467   0.260  1.00  0.00     0.081 A 
ATOM      7  N   UNL     1      -0.199   2.628   0.826  1.00  0.00    -0.350 N 
ATOM      8  C   UNL     1       0.427   2.519  -0.400  1.00  0.00     0.036 A 
ATOM      9  C   UNL     1      -1.239   1.149   2.589  1.00  0.00     0.065 C 
ATOM     10  C   UNL     1      -0.378   3.869   1.558  1.00  0.00     0.149 C 
ATOM     11  C   UNL     1       1.042   3.684  -1.102  1.00  0.00     0.066 C 
BRANCH   6  12
ATOM     12  C   UNL     1      -0.545  -0.967   0.340  1.00  0.00     0.257 C 
ATOM     13  O   UNL     1       0.344  -1.717   0.732  1.00  0.00    -0.269 OA
ATOM     14  N   UNL     1      -1.828  -1.408   0.018  1.00  0.00    -0.334 N 
ATOM     15  C   UNL     1      -2.023  -2.851  -0.108  1.00  0.00     0.148 C 
ATOM     16  C   UNL     1      -2.788  -0.603  -0.746  1.00  0.00     0.148 C 
ATOM     17  C   UNL     1      -3.489  -3.241   0.088  1.00  0.00     0.181 C 
ATOM     18  C   UNL     1      -4.224  -1.088  -0.524  1.00  0.00     0.181 C 
ATOM     19  O   UNL     1      -4.350  -2.493  -0.783  1.00  0.00    -0.378 OA
ENDBRANCH   6  12
ENDBRANCH   1   4
BRANCH   1  20
ATOM     20  N   UNL     1       2.608   0.324  -2.144  1.00  0.00    -0.277 N 
ATOM     21  H   UNL     1       3.020   1.255  -2.072  1.00  0.00     0.180 HD
BRANCH  20  22
ATOM     22  C   UNL     1       3.073  -0.571  -1.126  1.00  0.00     0.085 A 
ATOM     23  C   UNL     1       3.001  -1.950  -1.311  1.00  0.00     0.031 A 
ATOM     24  C   UNL     1       3.558  -0.058   0.082  1.00  0.00     0.148 A 
ATOM     25  C   UNL     1       3.426  -2.807  -0.292  1.00  0.00     0.018 A 
ATOM     26  C   UNL     1       3.981  -0.901   1.102  1.00  0.00     0.057 A 
ATOM     27  C   UNL     1       3.911  -2.279   0.908  1.00  0.00     0.021 A 
ATOM     28  F   UNL     1       3.626   1.271   0.256  1.00  0.00    -0.205 F 
ATOM     29  Br  UNL     1       4.477  -3.446   2.283  1.00  0.00    -0.051 Br
ENDBRANCH  20  22
ENDBRANCH   1  20
TORSDOF 4
