REMARK SMILES COc1ccc(Br)cc1CNC(=O)c1cc2n(n1)CCCN(Cc1ccc(C)cc1)C2=O
REMARK SMILES IDX 14 1 15 2 16 3 17 4 18 5 12 6 11 7 13 8 10 10 9 11 3 12 4 13
REMARK SMILES IDX 5 14 8 15 6 16 7 17 2 18 1 19 31 20 32 21 22 22 21 23 23 25
REMARK SMILES IDX 24 26 25 27 30 28 26 29 29 30 27 31 28 32 19 33 20 34
REMARK H PARENT 11 9
REMARK Flexibility Score:   80.900
ROOT
ATOM      1  C   UNL     1      -0.946   2.003  -0.427  1.00  0.00     0.151 A 
ATOM      2  C   UNL     1       0.387   2.455  -0.384  1.00  0.00     0.069 A 
ATOM      3  C   UNL     1       1.200   1.339  -0.533  1.00  0.00     0.127 A 
ATOM      4  N   UNL     1       0.320   0.290  -0.605  1.00  0.00    -0.259 N 
ATOM      5  N   UNL     1      -0.981   0.666  -0.570  1.00  0.00    -0.167 NA
ENDROOT
BRANCH   1   6
ATOM      6  C   UNL     1      -2.168   2.814  -0.326  1.00  0.00     0.272 C 
ATOM      7  N   UNL     1      -3.322   2.073  -0.435  1.00  0.00    -0.346 N 
ATOM      8  O   UNL     1      -2.153   4.029  -0.151  1.00  0.00    -0.267 OA
ATOM      9  H   UNL     1      -3.188   1.067  -0.401  1.00  0.00     0.164 HD
BRANCH   7  10
ATOM     10  C   UNL     1      -4.608   2.631  -0.114  1.00  0.00     0.156 C 
BRANCH  10  11
ATOM     11  C   UNL     1      -5.721   1.747  -0.618  1.00  0.00     0.014 A 
ATOM     12  C   UNL     1      -6.321   0.769   0.198  1.00  0.00     0.123 A 
ATOM     13  C   UNL     1      -7.338  -0.038  -0.326  1.00  0.00     0.048 A 
ATOM     14  C   UNL     1      -7.753   0.114  -1.653  1.00  0.00     0.019 A 
ATOM     15  C   UNL     1      -6.137   1.881  -1.956  1.00  0.00     0.025 A 
ATOM     16  C   UNL     1      -7.149   1.070  -2.462  1.00  0.00     0.018 A 
ATOM     17  Br  UNL     1      -7.701   1.265  -4.259  1.00  0.00    -0.051 Br
BRANCH  12  18
ATOM     18  O   UNL     1      -5.840   0.680   1.477  1.00  0.00    -0.496 OA
ATOM     19  C   UNL     1      -6.431  -0.285   2.338  1.00  0.00     0.278 C 
ENDBRANCH  12  18
ENDBRANCH  10  11
ENDBRANCH   7  10
ENDBRANCH   1   6
BRANCH   3  20
ATOM     20  C   UNL     1       2.650   1.379  -0.535  1.00  0.00     0.272 C 
ATOM     21  O   UNL     1       3.234   2.344  -0.038  1.00  0.00    -0.267 OA
BRANCH  20  22
ATOM     22  N   UNL     1       3.380   0.348  -1.119  1.00  0.00    -0.333 N 
BRANCH  22  23
ATOM     23  C   UNL     1       2.790  -0.817  -1.757  1.00  0.00     0.122 CG0
ATOM     24  G   UNL     1       1.980  -1.623  -0.761  1.00  0.00     0.000 G0
ENDBRANCH  22  23
BRANCH  22  25
ATOM     25  C   UNL     1       4.842   0.389  -1.024  1.00  0.00     0.155 C 
BRANCH  25  26
ATOM     26  C   UNL     1       5.367  -0.550   0.037  1.00  0.00    -0.029 A 
ATOM     27  C   UNL     1       5.997  -1.751  -0.312  1.00  0.00     0.006 A 
ATOM     28  C   UNL     1       5.216  -0.236   1.395  1.00  0.00     0.006 A 
ATOM     29  C   UNL     1       6.461  -2.623   0.676  1.00  0.00     0.004 A 
ATOM     30  C   UNL     1       5.680  -1.108   2.382  1.00  0.00     0.004 A 
ATOM     31  C   UNL     1       6.295  -2.314   2.031  1.00  0.00    -0.051 A 
ATOM     32  C   UNL     1       6.826  -3.232   3.091  1.00  0.00     0.044 C 
ENDBRANCH  25  26
ENDBRANCH  22  25
ENDBRANCH  20  22
ENDBRANCH   3  20
BRANCH   4  33
ATOM     33  C   UNL     1       0.546  -1.137  -0.716  1.00  0.00     0.147 C 
BRANCH  33  34
ATOM     34  C   UNL     1       1.980  -1.623  -0.761  1.00  0.00     0.045 CG0
ATOM     35  G   UNL     1       2.790  -0.817  -1.757  1.00  0.00     0.000 G0
ENDBRANCH  33  34
ENDBRANCH   4  33
TORSDOF 6
