REMARK SMILES Cc1ccc(C)c(N2CCN(C(=O)c3ccc(NC(=O)c4nsc5ccccc45)cc3)CC2)c1
REMARK SMILES IDX 8 1 9 2 10 3 11 4 12 5 13 6 32 7 33 8 7 9 2 10 3 11 34 12
REMARK SMILES IDX 4 13 5 14 1 15 6 16 14 17 15 18 31 19 16 20 30 21 17 22
REMARK SMILES IDX 18 23 19 24 20 25 21 27 22 28 29 29 23 30 28 31 24 32 27 33
REMARK SMILES IDX 25 34 26 35
REMARK H PARENT 18 26
ROOT
ATOM      1  N   UNL     1       4.314  -1.410   0.297  1.00  0.00    -0.368 N 
ATOM      2  C   UNL     1       4.565  -1.039   1.703  1.00  0.00     0.138 C 
ATOM      3  C   UNL     1       3.534  -0.049   2.276  1.00  0.00     0.141 C 
ATOM      4  N   UNL     1       2.146  -0.368   1.930  1.00  0.00    -0.335 N 
ATOM      5  C   UNL     1       1.152   0.016   2.824  1.00  0.00     0.253 C 
ATOM      6  O   UNL     1       1.373   0.374   3.978  1.00  0.00    -0.269 OA
ATOM      7  C   UNL     1       1.920  -0.738   0.524  1.00  0.00     0.141 C 
ATOM      8  C   UNL     1       2.916  -1.799   0.027  1.00  0.00     0.138 C 
ENDROOT
BRANCH   1   9
ATOM      9  C   UNL     1       4.964  -0.742  -0.743  1.00  0.00     0.040 A 
ATOM     10  C   UNL     1       5.864   1.316  -1.751  1.00  0.00    -0.049 A 
ATOM     11  C   UNL     1       6.219   0.607  -2.896  1.00  0.00     0.004 A 
ATOM     12  C   UNL     1       5.256   0.632  -0.685  1.00  0.00     0.029 A 
ATOM     13  C   UNL     1       5.964  -0.759  -2.975  1.00  0.00     0.006 A 
ATOM     14  C   UNL     1       5.358  -1.444  -1.906  1.00  0.00    -0.028 A 
ATOM     15  C   UNL     1       6.174   2.778  -1.632  1.00  0.00     0.044 C 
ATOM     16  C   UNL     1       5.160  -2.931  -2.050  1.00  0.00     0.046 C 
ENDBRANCH   1   9
BRANCH   5  17
ATOM     17  C   UNL     1      -0.257  -0.019   2.386  1.00  0.00     0.040 A 
ATOM     18  C   UNL     1      -0.722   0.878   1.422  1.00  0.00     0.016 A 
ATOM     19  C   UNL     1      -1.131  -0.922   2.990  1.00  0.00     0.016 A 
ATOM     20  C   UNL     1      -2.065   0.842   1.031  1.00  0.00     0.027 A 
ATOM     21  C   UNL     1      -2.472  -0.950   2.597  1.00  0.00     0.027 A 
ATOM     22  C   UNL     1      -2.948  -0.074   1.610  1.00  0.00     0.041 A 
BRANCH  22  23
ATOM     23  N   UNL     1      -4.308  -0.173   1.273  1.00  0.00    -0.321 N 
ATOM     24  C   UNL     1      -5.023   0.552   0.334  1.00  0.00     0.276 C 
ATOM     25  O   UNL     1      -4.567   1.428  -0.393  1.00  0.00    -0.267 OA
ATOM     26  H   UNL     1      -4.868  -0.862   1.769  1.00  0.00     0.170 HD
BRANCH  24  27
ATOM     27  C   UNL     1      -6.449   0.151   0.283  1.00  0.00     0.150 A 
ATOM     28  N   UNL     1      -6.872  -0.829   1.099  1.00  0.00    -0.186 NA
ATOM     29  C   UNL     1      -7.462   0.727  -0.585  1.00  0.00     0.026 A 
ATOM     30  S   UNL     1      -8.482  -1.087   0.854  1.00  0.00    -0.036 S 
ATOM     31  C   UNL     1      -7.418   1.754  -1.562  1.00  0.00     0.012 A 
ATOM     32  C   UNL     1      -8.693   0.104  -0.362  1.00  0.00     0.056 A 
ATOM     33  C   UNL     1      -8.572   2.115  -2.266  1.00  0.00     0.001 A 
ATOM     34  C   UNL     1      -9.859   0.458  -1.062  1.00  0.00     0.021 A 
ATOM     35  C   UNL     1      -9.778   1.473  -2.017  1.00  0.00     0.002 A 
ENDBRANCH  24  27
ENDBRANCH  22  23
ENDBRANCH   5  17
TORSDOF 4
