REMARK SMILES Cc1ccc(C(=O)N2CCN(c3ccc(F)cc3)CC2)cc1NC(=O)c1nsc2ccccc12
REMARK SMILES IDX 6 1 7 2 8 3 9 4 10 5 11 6 19 7 20 8 5 9 2 10 3 11 22 12 4 13
REMARK SMILES IDX 21 14 1 15 23 16 24 17 25 18 26 20 27 21 34 22 28 23 33 24
REMARK SMILES IDX 29 25 32 26 30 27 31 28 12 29 13 30 18 31 14 32 17 33 15 34
REMARK SMILES IDX 16 35
REMARK H PARENT 23 19
ROOT
ATOM      1  C   UNL     1      -0.904  -0.783   1.840  1.00  0.00     0.254 C 
ATOM      2  O   UNL     1      -0.675  -0.519   3.018  1.00  0.00    -0.269 OA
ATOM      3  N   UNL     1      -2.110  -0.482   1.218  1.00  0.00    -0.335 N 
ATOM      4  C   UNL     1      -2.316  -0.427  -0.236  1.00  0.00     0.141 C 
ATOM      5  C   UNL     1      -3.338   0.645  -0.665  1.00  0.00     0.138 C 
ATOM      6  N   UNL     1      -4.623   0.471   0.031  1.00  0.00    -0.368 N 
ATOM      7  C   UNL     1      -4.577  -0.080   1.400  1.00  0.00     0.138 C 
ATOM      8  C   UNL     1      -3.186   0.077   2.038  1.00  0.00     0.141 C 
ENDROOT
BRANCH   1   9
ATOM      9  C   UNL     1       0.171  -1.441   1.061  1.00  0.00     0.042 A 
ATOM     10  C   UNL     1       2.274  -2.632  -0.375  1.00  0.00    -0.027 A 
ATOM     11  C   UNL     1       0.967  -3.165  -0.412  1.00  0.00     0.006 A 
ATOM     12  C   UNL     1       2.540  -1.540   0.474  1.00  0.00     0.045 A 
ATOM     13  C   UNL     1      -0.075  -2.585   0.309  1.00  0.00     0.014 A 
ATOM     14  C   UNL     1       1.471  -0.932   1.155  1.00  0.00     0.040 A 
ATOM     15  C   UNL     1       3.282  -3.274  -1.289  1.00  0.00     0.046 C 
BRANCH  12  16
ATOM     16  N   UNL     1       3.801  -0.939   0.685  1.00  0.00    -0.320 N 
ATOM     17  C   UNL     1       5.044  -1.558   0.700  1.00  0.00     0.276 C 
ATOM     18  O   UNL     1       5.237  -2.765   0.614  1.00  0.00    -0.267 OA
ATOM     19  H   UNL     1       3.787  -0.043   1.159  1.00  0.00     0.170 HD
BRANCH  17  20
ATOM     20  C   UNL     1       6.153  -0.606   0.917  1.00  0.00     0.150 A 
ATOM     21  N   UNL     1       7.104  -0.915   1.805  1.00  0.00    -0.186 NA
ATOM     22  C   UNL     1       6.315   0.678   0.248  1.00  0.00     0.026 A 
ATOM     23  S   UNL     1       8.200   0.309   1.894  1.00  0.00    -0.036 S 
ATOM     24  C   UNL     1       5.564   1.338  -0.760  1.00  0.00     0.012 A 
ATOM     25  C   UNL     1       7.457   1.324   0.728  1.00  0.00     0.056 A 
ATOM     26  C   UNL     1       5.955   2.599  -1.223  1.00  0.00     0.001 A 
ATOM     27  C   UNL     1       7.859   2.590   0.271  1.00  0.00     0.021 A 
ATOM     28  C   UNL     1       7.088   3.218  -0.710  1.00  0.00     0.002 A 
ENDBRANCH  17  20
ENDBRANCH  12  16
ENDBRANCH   1   9
BRANCH   6  29
ATOM     29  C   UNL     1      -5.808   0.966  -0.492  1.00  0.00     0.037 A 
ATOM     30  C   UNL     1      -7.059   0.515  -0.031  1.00  0.00     0.029 A 
ATOM     31  C   UNL     1      -5.827   1.931  -1.515  1.00  0.00     0.029 A 
ATOM     32  C   UNL     1      -8.263   1.001  -0.555  1.00  0.00     0.041 A 
ATOM     33  C   UNL     1      -7.025   2.425  -2.045  1.00  0.00     0.041 A 
ATOM     34  C   UNL     1      -8.233   1.955  -1.558  1.00  0.00     0.123 A 
ATOM     35  F   UNL     1      -9.381   2.424  -2.063  1.00  0.00    -0.207 F 
ENDBRANCH   6  29
TORSDOF 4
