REMARK SMILES Cc1nn(-c2ccc3nnc(C)n3n2)c(C)c1CCC(=O)Nc1ccc(OC(F)(F)F)cc1
REMARK SMILES IDX 20 1 21 2 22 3 19 5 18 6 17 7 2 8 3 9 4 10 15 11 1 12 16 13
REMARK SMILES IDX 5 14 6 15 14 16 7 17 13 18 8 19 11 20 9 21 10 22 12 23 23 24
REMARK SMILES IDX 24 25 33 26 25 27 32 28 26 29 27 30 28 31 29 32 30 33 31 34
REMARK H PARENT 22 4
ROOT
ATOM      1  C   UNL     1       2.600   0.506  -0.246  1.00  0.00     0.224 C 
ATOM      2  O   UNL     1       3.022   0.814  -1.353  1.00  0.00    -0.275 OA
ATOM      3  N   UNL     1       3.357   0.131   0.853  1.00  0.00    -0.326 N 
ATOM      4  H   UNL     1       2.850  -0.092   1.700  1.00  0.00     0.169 HD
ENDROOT
BRANCH   1   5
ATOM      5  C   UNL     1       1.116   0.491   0.074  1.00  0.00     0.105 C 
BRANCH   5   6
ATOM      6  C   UNL     1       0.276   0.932  -1.122  1.00  0.00     0.049 C 
BRANCH   6   7
ATOM      7  C   UNL     1      -1.190   0.896  -0.823  1.00  0.00    -0.003 A 
ATOM      8  C   UNL     1      -1.962   1.906  -0.201  1.00  0.00     0.063 A 
ATOM      9  N   UNL     1      -3.225   1.524  -0.025  1.00  0.00    -0.171 NA
ATOM     10  N   UNL     1      -3.335   0.317  -0.643  1.00  0.00    -0.217 N 
ATOM     11  C   UNL     1      -2.080  -0.146  -1.041  1.00  0.00     0.046 A 
ATOM     12  C   UNL     1      -1.517   3.239   0.278  1.00  0.00     0.069 C 
ATOM     13  C   UNL     1      -1.791  -1.523  -1.524  1.00  0.00     0.067 C 
BRANCH  10  14
ATOM     14  C   UNL     1      -4.636  -0.240  -0.763  1.00  0.00     0.174 C 
ATOM     15  C   UNL     1      -4.843  -1.114  -1.958  1.00  0.00     0.055 C 
ATOM     16  N   UNL     1      -5.556   0.060   0.112  1.00  0.00    -0.145 NA
ATOM     17  C   UNL     1      -6.047  -1.684  -2.104  1.00  0.00     0.055 C 
ATOM     18  N   UNL     1      -6.747  -0.560  -0.123  1.00  0.00    -0.196 N 
ATOM     19  C   UNL     1      -7.051  -1.427  -1.150  1.00  0.00     0.178 A 
ATOM     20  C   UNL     1      -7.896  -0.471   0.625  1.00  0.00     0.152 A 
ATOM     21  N   UNL     1      -8.292  -1.842  -1.028  1.00  0.00    -0.129 NA
ATOM     22  N   UNL     1      -8.826  -1.241   0.091  1.00  0.00    -0.133 NA
ATOM     23  C   UNL     1      -8.010   0.372   1.832  1.00  0.00     0.092 C 
ENDBRANCH  10  14
ENDBRANCH   6   7
ENDBRANCH   5   6
ENDBRANCH   1   5
BRANCH   3  24
ATOM     24  C   UNL     1       4.761   0.027   0.934  1.00  0.00     0.041 A 
ATOM     25  C   UNL     1       5.304  -0.371   2.159  1.00  0.00     0.030 A 
ATOM     26  C   UNL     1       5.629   0.294  -0.125  1.00  0.00     0.030 A 
ATOM     27  C   UNL     1       6.687  -0.498   2.317  1.00  0.00     0.049 A 
ATOM     28  C   UNL     1       7.018   0.167   0.034  1.00  0.00     0.049 A 
ATOM     29  C   UNL     1       7.555  -0.230   1.256  1.00  0.00     0.129 A 
BRANCH  29  30
ATOM     30  O   UNL     1       8.877  -0.394   1.551  1.00  0.00    -0.406 OA
BRANCH  30  31
ATOM     31  C   UNL     1       9.820  -0.141   0.523  1.00  0.00     0.573 C 
ATOM     32  F   UNL     1      11.061  -0.360   1.012  1.00  0.00    -0.132 F 
ATOM     33  F   UNL     1       9.754   1.141   0.105  1.00  0.00    -0.132 F 
ATOM     34  F   UNL     1       9.632  -0.970  -0.526  1.00  0.00    -0.132 F 
ENDBRANCH  30  31
ENDBRANCH  29  30
ENDBRANCH   3  24
TORSDOF 7
