REMARK SMILES COc1ccc(C)cc1NC(=O)N1CCN(c2cc(-c3noc(C)n3)ccc2C)CC1
REMARK SMILES IDX 10 1 11 2 12 3 13 4 14 5 15 6 16 7 30 8 31 9 9 11 3 12 4 13
REMARK SMILES IDX 5 14 8 15 6 16 7 17 2 18 1 19 17 20 18 21 28 22 19 23 27 24
REMARK SMILES IDX 26 25 29 26 20 27 21 28 25 29 22 30 23 31 24 32
REMARK H PARENT 10 10
ROOT
ATOM      1  N   UNL     1      -3.186   0.597   0.356  1.00  0.00    -0.304 N 
ATOM      2  C   UNL     1      -1.999   1.157   0.760  1.00  0.00     0.322 C 
ATOM      3  O   UNL     1      -1.872   2.305   1.180  1.00  0.00    -0.248 OA
ATOM      4  N   UNL     1      -0.907   0.303   0.669  1.00  0.00    -0.321 N 
ATOM      5  C   UNL     1       0.385   0.759   1.193  1.00  0.00     0.143 C 
ATOM      6  C   UNL     1       1.269  -0.405   1.675  1.00  0.00     0.138 C 
ATOM      7  N   UNL     1       1.439  -1.469   0.654  1.00  0.00    -0.368 N 
ATOM      8  C   UNL     1       0.522  -1.388  -0.505  1.00  0.00     0.138 C 
ATOM      9  C   UNL     1      -0.891  -0.975  -0.058  1.00  0.00     0.143 C 
ATOM     10  H   UNL     1      -3.231  -0.411   0.321  1.00  0.00     0.172 HD
ENDROOT
BRANCH   1  11
ATOM     11  C   UNL     1      -4.450   1.213   0.221  1.00  0.00     0.085 A 
ATOM     12  C   UNL     1      -5.552   0.361  -0.009  1.00  0.00     0.142 A 
ATOM     13  C   UNL     1      -6.830   0.908  -0.155  1.00  0.00     0.049 A 
ATOM     14  C   UNL     1      -7.015   2.291  -0.083  1.00  0.00     0.007 A 
ATOM     15  C   UNL     1      -4.646   2.595   0.282  1.00  0.00     0.033 A 
ATOM     16  C   UNL     1      -5.926   3.144   0.121  1.00  0.00    -0.049 A 
ATOM     17  C   UNL     1      -6.128   4.627   0.227  1.00  0.00     0.044 C 
BRANCH  12  18
ATOM     18  O   UNL     1      -5.259  -0.983  -0.066  1.00  0.00    -0.495 OA
ATOM     19  C   UNL     1      -6.350  -1.873  -0.269  1.00  0.00     0.278 C 
ENDBRANCH  12  18
ENDBRANCH   1  11
BRANCH   7  20
ATOM     20  C   UNL     1       2.770  -1.701   0.255  1.00  0.00     0.040 A 
ATOM     21  C   UNL     1       3.569  -0.675  -0.281  1.00  0.00     0.038 A 
ATOM     22  C   UNL     1       3.313  -2.995   0.371  1.00  0.00    -0.028 A 
ATOM     23  C   UNL     1       4.889  -0.912  -0.695  1.00  0.00     0.025 A 
ATOM     24  C   UNL     1       4.631  -3.236  -0.045  1.00  0.00     0.006 A 
ATOM     25  C   UNL     1       5.410  -2.204  -0.571  1.00  0.00     0.012 A 
ATOM     26  C   UNL     1       2.498  -4.126   0.939  1.00  0.00     0.046 C 
BRANCH  23  27
ATOM     27  C   UNL     1       5.708   0.162  -1.247  1.00  0.00     0.202 A 
ATOM     28  N   UNL     1       5.286   1.429  -1.399  1.00  0.00    -0.057 NA
ATOM     29  N   UNL     1       7.008  -0.043  -1.667  1.00  0.00    -0.191 NA
ATOM     30  O   UNL     1       6.384   2.084  -1.951  1.00  0.00    -0.339 OA
ATOM     31  C   UNL     1       7.366   1.149  -2.080  1.00  0.00     0.223 A 
ATOM     32  C   UNL     1       8.644   1.607  -2.649  1.00  0.00     0.114 C 
ENDBRANCH  23  27
ENDBRANCH   7  20
TORSDOF 4
