REMARK SMILES Cc1nc(-c2ccc(C)c(N3CCN(C(=O)Nc4ccccc4C(F)(F)F)CC3)c2)no1
REMARK SMILES IDX 11 1 12 2 13 3 14 4 15 5 16 6 17 7 28 8 29 9 10 11 5 12 6 13
REMARK SMILES IDX 30 14 7 15 8 16 9 17 4 18 2 19 3 20 32 21 31 22 1 23 18 24
REMARK SMILES IDX 19 25 23 26 20 27 22 28 21 29 24 30 25 31 26 32 27 33
REMARK H PARENT 17 10
ROOT
ATOM      1  N   UNL     1       0.900   1.162  -1.008  1.00  0.00    -0.368 N 
ATOM      2  C   UNL     1       0.222   1.177   0.306  1.00  0.00     0.138 C 
ATOM      3  C   UNL     1      -1.292   0.955   0.142  1.00  0.00     0.143 C 
ATOM      4  N   UNL     1      -1.612  -0.299  -0.560  1.00  0.00    -0.321 N 
ATOM      5  C   UNL     1      -2.794  -1.018  -0.424  1.00  0.00     0.321 C 
ATOM      6  O   UNL     1      -2.890  -2.167  -0.846  1.00  0.00    -0.248 OA
ATOM      7  N   UNL     1      -3.808  -0.317   0.192  1.00  0.00    -0.307 N 
ATOM      8  C   UNL     1      -0.512  -0.903  -1.321  1.00  0.00     0.143 C 
ATOM      9  C   UNL     1       0.404   0.148  -1.971  1.00  0.00     0.138 C 
ATOM     10  H   UNL     1      -3.686   0.687   0.175  1.00  0.00     0.171 HD
ENDROOT
BRANCH   1  11
ATOM     11  C   UNL     1       2.302   1.217  -0.874  1.00  0.00     0.040 A 
ATOM     12  C   UNL     1       4.447   0.150  -0.349  1.00  0.00     0.025 A 
ATOM     13  C   UNL     1       5.094   1.370  -0.576  1.00  0.00     0.012 A 
ATOM     14  C   UNL     1       3.053   0.089  -0.499  1.00  0.00     0.038 A 
ATOM     15  C   UNL     1       4.365   2.501  -0.945  1.00  0.00     0.006 A 
ATOM     16  C   UNL     1       2.972   2.436  -1.098  1.00  0.00    -0.028 A 
ATOM     17  C   UNL     1       2.213   3.671  -1.502  1.00  0.00     0.046 C 
BRANCH  12  18
ATOM     18  C   UNL     1       5.214  -1.029   0.040  1.00  0.00     0.202 A 
ATOM     19  C   UNL     1       6.862  -2.232   0.540  1.00  0.00     0.223 A 
ATOM     20  N   UNL     1       6.585  -0.997   0.199  1.00  0.00    -0.191 NA
ATOM     21  O   UNL     1       5.763  -3.034   0.608  1.00  0.00    -0.339 OA
ATOM     22  N   UNL     1       4.671  -2.236   0.276  1.00  0.00    -0.057 NA
ATOM     23  C   UNL     1       8.157  -2.858   0.853  1.00  0.00     0.114 C 
ENDBRANCH  12  18
ENDBRANCH   1  11
BRANCH   7  24
ATOM     24  C   UNL     1      -5.073  -0.795   0.613  1.00  0.00     0.055 A 
ATOM     25  C   UNL     1      -5.351  -2.168   0.685  1.00  0.00     0.027 A 
ATOM     26  C   UNL     1      -6.074   0.118   1.007  1.00  0.00     0.079 A 
ATOM     27  C   UNL     1      -6.596  -2.635   1.116  1.00  0.00     0.002 A 
ATOM     28  C   UNL     1      -7.327  -0.371   1.436  1.00  0.00     0.015 A 
ATOM     29  C   UNL     1      -7.587  -1.737   1.489  1.00  0.00     0.001 A 
BRANCH  26  30
ATOM     30  C   UNL     1      -5.899   1.615   0.971  1.00  0.00     0.418 C 
ATOM     31  F   UNL     1      -4.614   2.024   0.743  1.00  0.00    -0.166 F 
ATOM     32  F   UNL     1      -6.266   2.216   2.138  1.00  0.00    -0.166 F 
ATOM     33  F   UNL     1      -6.647   2.205  -0.002  1.00  0.00    -0.166 F 
ENDBRANCH  26  30
ENDBRANCH   7  24
TORSDOF 4
