REMARK SMILES O=C(CSc1nc(=O)n(CCN2CCOCC2)c2c1CCC2)Nc1ccc(Cl)c(Cl)c1
REMARK SMILES IDX 4 1 3 2 2 3 1 4 23 5 24 7 25 8 31 9 26 10 29 11 27 12 30 13
REMARK SMILES IDX 28 14 5 15 6 16 19 17 7 18 18 19 20 20 8 21 9 22 22 23 21 24
REMARK SMILES IDX 10 25 11 26 12 27 13 28 17 29 14 30 16 31 15 32
REMARK H PARENT 23 6
ROOT
ATOM      1  S   UNL     1       2.649   0.478   0.506  1.00  0.00    -0.096 SA
ENDROOT
BRANCH   1   2
ATOM      2  C   UNL     1       3.213   0.779  -1.196  1.00  0.00     0.176 C 
BRANCH   2   3
ATOM      3  C   UNL     1       4.726   0.920  -1.216  1.00  0.00     0.234 C 
ATOM      4  O   UNL     1       5.257   2.005  -1.439  1.00  0.00    -0.274 OA
ATOM      5  N   UNL     1       5.381  -0.281  -0.983  1.00  0.00    -0.325 N 
ATOM      6  H   UNL     1       4.787  -1.066  -0.742  1.00  0.00     0.169 HD
BRANCH   5   7
ATOM      7  C   UNL     1       6.770  -0.515  -0.962  1.00  0.00     0.042 A 
ATOM      8  C   UNL     1       7.190  -1.812  -0.638  1.00  0.00     0.028 A 
ATOM      9  C   UNL     1       7.734   0.455  -1.247  1.00  0.00     0.048 A 
ATOM     10  C   UNL     1       8.550  -2.132  -0.595  1.00  0.00     0.024 A 
ATOM     11  C   UNL     1       9.099   0.138  -1.206  1.00  0.00     0.061 A 
ATOM     12  C   UNL     1       9.508  -1.158  -0.879  1.00  0.00     0.059 A 
ATOM     13  Cl  UNL     1      10.230   1.395  -1.571  1.00  0.00    -0.083 Cl
ATOM     14  Cl  UNL     1      11.171  -1.621  -0.808  1.00  0.00    -0.083 Cl
ENDBRANCH   5   7
ENDBRANCH   2   3
ENDBRANCH   1   2
BRANCH   1  15
ATOM     15  C   UNL     1       0.922   0.468   0.238  1.00  0.00     0.107 C 
ATOM     16  N   UNL     1       0.460   0.061  -0.892  1.00  0.00    -0.186 NA
ATOM     17  C   UNL     1       0.112   0.922   1.361  1.00  0.00     0.004 C 
ATOM     18  C   UNL     1      -0.904   0.054  -1.088  1.00  0.00     0.348 C 
ATOM     19  C   UNL     1      -1.200   0.927   1.143  1.00  0.00     0.029 C 
ATOM     20  C   UNL     1       0.481   1.401   2.714  1.00  0.00     0.040 C 
ATOM     21  O   UNL     1      -1.377  -0.360  -2.143  1.00  0.00    -0.246 OA
ATOM     22  N   UNL     1      -1.735   0.527  -0.056  1.00  0.00    -0.295 N 
ATOM     23  C   UNL     1      -1.955   1.417   2.332  1.00  0.00     0.055 C 
ATOM     24  C   UNL     1      -0.878   1.406   3.427  1.00  0.00     0.011 C 
BRANCH  22  25
ATOM     25  C   UNL     1      -3.184   0.505  -0.276  1.00  0.00     0.143 C 
BRANCH  25  26
ATOM     26  C   UNL     1      -3.793  -0.877   0.045  1.00  0.00     0.106 C 
BRANCH  26  27
ATOM     27  N   UNL     1      -5.244  -1.044  -0.119  1.00  0.00    -0.297 NA
ATOM     28  C   UNL     1      -6.045  -0.169   0.753  1.00  0.00     0.113 C 
ATOM     29  C   UNL     1      -5.688  -0.890  -1.517  1.00  0.00     0.113 C 
ATOM     30  C   UNL     1      -7.547  -0.447   0.574  1.00  0.00     0.175 C 
ATOM     31  C   UNL     1      -7.199  -1.144  -1.644  1.00  0.00     0.175 C 
ATOM     32  O   UNL     1      -7.946  -0.263  -0.791  1.00  0.00    -0.379 OA
ENDBRANCH  26  27
ENDBRANCH  25  26
ENDBRANCH  22  25
ENDBRANCH   1  15
TORSDOF 7
