REMARK SMILES Cc1cc(C)cc(NC(=O)CSc2nc(=O)n(CCN3CCOCC3)c3c2CCC3)c1
REMARK SMILES IDX 12 1 11 2 9 3 8 4 10 5 7 7 2 8 3 9 31 10 4 11 6 12 1 13 5 14
REMARK SMILES IDX 13 15 14 16 27 17 15 18 26 19 28 20 16 21 17 22 30 23 29 24
REMARK SMILES IDX 18 25 19 26 20 27 21 28 25 29 22 30 24 31 23 32
REMARK H PARENT 8 6
ROOT
ATOM      1  S   UNL     1       1.906  -4.073  -0.723  1.00  0.00    -0.096 SA
ENDROOT
BRANCH   1   2
ATOM      2  C   UNL     1       3.248  -3.232   0.159  1.00  0.00     0.176 C 
BRANCH   2   3
ATOM      3  C   UNL     1       3.356  -1.768  -0.250  1.00  0.00     0.234 C 
ATOM      4  N   UNL     1       2.857  -0.903   0.708  1.00  0.00    -0.325 N 
ATOM      5  O   UNL     1       3.849  -1.449  -1.330  1.00  0.00    -0.274 OA
ATOM      6  H   UNL     1       2.290  -1.331   1.439  1.00  0.00     0.169 HD
BRANCH   4   7
ATOM      7  C   UNL     1       2.895   0.504   0.717  1.00  0.00     0.041 A 
ATOM      8  C   UNL     1       3.565   2.675  -0.152  1.00  0.00    -0.049 A 
ATOM      9  C   UNL     1       2.890   3.303   0.902  1.00  0.00     0.007 A 
ATOM     10  C   UNL     1       3.558   1.274  -0.239  1.00  0.00     0.029 A 
ATOM     11  C   UNL     1       2.239   2.546   1.881  1.00  0.00    -0.049 A 
ATOM     12  C   UNL     1       2.235   1.149   1.771  1.00  0.00     0.029 A 
ATOM     13  C   UNL     1       4.238   3.492  -1.216  1.00  0.00     0.044 C 
ATOM     14  C   UNL     1       1.494   3.219   2.995  1.00  0.00     0.044 C 
ENDBRANCH   4   7
ENDBRANCH   2   3
ENDBRANCH   1   2
BRANCH   1  15
ATOM     15  C   UNL     1       0.503  -3.262  -0.069  1.00  0.00     0.107 C 
ATOM     16  N   UNL     1       0.603  -2.569   1.011  1.00  0.00    -0.186 NA
ATOM     17  C   UNL     1      -0.728  -3.450  -0.826  1.00  0.00     0.004 C 
ATOM     18  C   UNL     1      -0.509  -1.906   1.484  1.00  0.00     0.348 C 
ATOM     19  C   UNL     1      -1.787  -2.790  -0.361  1.00  0.00     0.029 C 
ATOM     20  C   UNL     1      -1.026  -4.268  -2.025  1.00  0.00     0.040 C 
ATOM     21  O   UNL     1      -0.412  -1.248   2.516  1.00  0.00    -0.246 OA
ATOM     22  N   UNL     1      -1.712  -1.993   0.758  1.00  0.00    -0.295 N 
ATOM     23  C   UNL     1      -2.997  -3.062  -1.192  1.00  0.00     0.055 C 
ATOM     24  C   UNL     1      -2.559  -4.284  -2.011  1.00  0.00     0.011 C 
BRANCH  22  25
ATOM     25  C   UNL     1      -2.882  -1.273   1.266  1.00  0.00     0.143 C 
BRANCH  25  26
ATOM     26  C   UNL     1      -3.408  -0.106   0.396  1.00  0.00     0.106 C 
BRANCH  26  27
ATOM     27  N   UNL     1      -2.595   1.127   0.369  1.00  0.00    -0.297 NA
ATOM     28  C   UNL     1      -1.402   0.998  -0.501  1.00  0.00     0.113 C 
ATOM     29  C   UNL     1      -3.419   2.252  -0.137  1.00  0.00     0.113 C 
ATOM     30  C   UNL     1      -0.646   2.331  -0.651  1.00  0.00     0.175 C 
ATOM     31  C   UNL     1      -2.608   3.548  -0.279  1.00  0.00     0.175 C 
ATOM     32  O   UNL     1      -1.501   3.359  -1.167  1.00  0.00    -0.379 OA
ENDBRANCH  26  27
ENDBRANCH  25  26
ENDBRANCH  22  25
ENDBRANCH   1  15
TORSDOF 7
