REMARK SMILES Cc1ccc(CNC(=O)c2cc(-c3ccc(C)cc3)nc3n[nH]c(-c4ccc(F)cc4)c23)cc1
REMARK SMILES IDX 7 1 8 2 9 3 6 5 5 6 2 7 3 8 34 9 4 10 33 11 1 12 10 13 11 14
REMARK SMILES IDX 32 15 12 16 24 17 21 18 20 19 23 20 22 21 13 23 14 24 19 25
REMARK SMILES IDX 15 26 18 27 16 28 17 29 25 30 26 31 31 32 27 33 30 34 28 35
REMARK SMILES IDX 29 36
REMARK H PARENT 7 4 23 22
ROOT
ATOM      1  N   UNL     1       1.471   1.287   0.095  1.00  0.00    -0.348 N 
ATOM      2  C   UNL     1       0.350   1.155   0.874  1.00  0.00     0.252 C 
ATOM      3  O   UNL     1       0.337   1.192   2.098  1.00  0.00    -0.269 OA
ATOM      4  H   UNL     1       1.412   1.109  -0.898  1.00  0.00     0.164 HD
ENDROOT
BRANCH   1   5
ATOM      5  C   UNL     1       2.788   1.447   0.665  1.00  0.00     0.152 C 
BRANCH   5   6
ATOM      6  C   UNL     1       3.561   0.157   0.577  1.00  0.00    -0.029 A 
ATOM      7  C   UNL     1       4.964  -2.280   0.404  1.00  0.00    -0.051 A 
ATOM      8  C   UNL     1       5.160  -1.278  -0.553  1.00  0.00     0.004 A 
ATOM      9  C   UNL     1       4.042  -2.065   1.434  1.00  0.00     0.004 A 
ATOM     10  C   UNL     1       4.466  -0.069  -0.467  1.00  0.00     0.006 A 
ATOM     11  C   UNL     1       3.348  -0.856   1.521  1.00  0.00     0.006 A 
ATOM     12  C   UNL     1       5.685  -3.591   0.292  1.00  0.00     0.044 C 
ENDBRANCH   5   6
ENDBRANCH   1   5
BRANCH   2  13
ATOM     13  C   UNL     1      -0.892   0.869   0.157  1.00  0.00     0.055 A 
ATOM     14  C   UNL     1      -1.688  -0.220   0.544  1.00  0.00     0.043 A 
ATOM     15  C   UNL     1      -1.437   1.551  -0.932  1.00  0.00     0.059 A 
ATOM     16  C   UNL     1      -2.870  -0.577  -0.156  1.00  0.00     0.074 A 
ATOM     17  C   UNL     1      -1.020   2.716  -1.551  1.00  0.00     0.075 A 
ATOM     18  C   UNL     1      -2.637   1.167  -1.610  1.00  0.00     0.182 A 
ATOM     19  N   UNL     1      -3.368   0.090  -1.241  1.00  0.00    -0.226 NA
ATOM     20  N   UNL     1      -1.949   2.918  -2.548  1.00  0.00    -0.275 N 
ATOM     21  N   UNL     1      -2.919   1.995  -2.615  1.00  0.00    -0.154 NA
ATOM     22  H   UNL     1      -1.985   3.692  -3.203  1.00  0.00     0.190 HD
BRANCH  16  23
ATOM     23  C   UNL     1      -3.681  -1.745   0.264  1.00  0.00     0.000 A 
ATOM     24  C   UNL     1      -3.098  -2.917   0.779  1.00  0.00     0.010 A 
ATOM     25  C   UNL     1      -5.082  -1.725   0.144  1.00  0.00     0.010 A 
ATOM     26  C   UNL     1      -3.880  -4.008   1.176  1.00  0.00     0.004 A 
ATOM     27  C   UNL     1      -5.868  -2.813   0.539  1.00  0.00     0.004 A 
ATOM     28  C   UNL     1      -5.273  -3.958   1.073  1.00  0.00    -0.051 A 
ATOM     29  C   UNL     1      -6.109  -5.139   1.465  1.00  0.00     0.044 C 
ENDBRANCH  16  23
BRANCH  17  30
ATOM     30  C   UNL     1       0.046   3.680  -1.314  1.00  0.00     0.000 A 
ATOM     31  C   UNL     1       0.987   3.953  -2.318  1.00  0.00     0.013 A 
ATOM     32  C   UNL     1       0.134   4.355  -0.088  1.00  0.00     0.013 A 
ATOM     33  C   UNL     1       2.009   4.877  -2.091  1.00  0.00     0.040 A 
ATOM     34  C   UNL     1       1.158   5.277   0.137  1.00  0.00     0.040 A 
ATOM     35  C   UNL     1       2.085   5.529  -0.866  1.00  0.00     0.123 A 
ATOM     36  F   UNL     1       3.069   6.411  -0.650  1.00  0.00    -0.207 F 
ENDBRANCH  17  30
ENDBRANCH   2  13
TORSDOF 5
