REMARK SMILES CN(C)c1nc(N)nc(N)n1
REMARK SMILES IDX 4 1 5 2 6 3 8 4 9 5 11 6 2 7 1 8 3 9 7 10 10 13
REMARK H PARENT 7 11 7 12 10 14 10 15
ROOT
ATOM      1  C   UNL     1      -0.206  -0.170   0.271  1.00  0.00     0.231 A 
ATOM      2  N   UNL     1       0.257   1.000   0.702  1.00  0.00    -0.177 NA
ATOM      3  C   UNL     1       1.542   1.234   0.492  1.00  0.00     0.226 A 
ATOM      4  N   UNL     1       2.371   0.424  -0.137  1.00  0.00    -0.177 NA
ATOM      5  C   UNL     1       1.833  -0.720  -0.514  1.00  0.00     0.226 A 
ATOM      6  N   UNL     1       0.564  -1.056  -0.357  1.00  0.00    -0.177 NA
ENDROOT
BRANCH   1   7
ATOM      7  N   UNL     1      -1.548  -0.488   0.499  1.00  0.00    -0.347 N 
ATOM      8  C   UNL     1      -2.412   0.649   0.773  1.00  0.00     0.146 C 
ATOM      9  C   UNL     1      -2.086  -1.536  -0.352  1.00  0.00     0.146 C 
ENDBRANCH   1   7
BRANCH   3  10
ATOM     10  N   UNL     1       2.043   2.449   0.920  1.00  0.00    -0.368 N 
ATOM     11  H   UNL     1       1.301   3.129   1.005  1.00  0.00     0.159 HD
ATOM     12  H   UNL     1       2.861   2.705   0.386  1.00  0.00     0.159 HD
ENDBRANCH   3  10
BRANCH   5  13
ATOM     13  N   UNL     1       2.649  -1.619  -1.174  1.00  0.00    -0.368 N 
ATOM     14  H   UNL     1       2.100  -2.235  -1.756  1.00  0.00     0.159 HD
ATOM     15  H   UNL     1       3.434  -1.144  -1.595  1.00  0.00     0.159 HD
ENDBRANCH   5  13
TORSDOF 3
