REMARK SMILES Cc1c(C(c2ccc(O)cc2)c2c(C)n(C)n(-c3ccccc3)c2=O)c(=O)n(-c2ccccc2)n1C
REMARK SMILES IDX 5 1 6 2 7 3 8 4 10 5 11 6 4 7 3 8 2 9 35 10 26 11 28 12
REMARK SMILES IDX 27 13 1 14 36 15 29 16 30 17 34 18 31 19 33 20 32 21 12 22
REMARK SMILES IDX 13 23 24 24 15 25 17 26 25 27 14 28 16 29 18 30 19 31 23 32
REMARK SMILES IDX 20 33 22 34 21 35 9 36
REMARK H PARENT 9 37
ROOT
ATOM      1  C   UNL     1      -0.362  -2.698   0.042  1.00  0.00    -0.035 A 
ATOM      2  C   UNL     1       0.261  -3.858  -0.463  1.00  0.00     0.008 A 
ATOM      3  C   UNL     1       0.017  -5.113   0.100  1.00  0.00     0.046 A 
ATOM      4  C   UNL     1      -0.852  -5.219   1.179  1.00  0.00     0.115 A 
ATOM      5  C   UNL     1      -1.474  -4.094   1.701  1.00  0.00     0.046 A 
ATOM      6  C   UNL     1      -1.229  -2.838   1.138  1.00  0.00     0.008 A 
ENDROOT
BRANCH   1   7
ATOM      7  C   UNL     1      -0.050  -1.349  -0.611  1.00  0.00     0.094 C 
BRANCH   7   8
ATOM      8  C   UNL     1      -1.219  -0.408  -0.662  1.00  0.00     0.052 C 
ATOM      9  C   UNL     1      -2.114  -0.172  -1.640  1.00  0.00     0.042 C 
ATOM     10  N   UNL     1      -3.022   0.849  -1.328  1.00  0.00    -0.285 N 
ATOM     11  C   UNL     1      -1.573   0.541   0.430  1.00  0.00     0.275 C 
ATOM     12  N   UNL     1      -2.694   1.257  -0.005  1.00  0.00    -0.218 N 
ATOM     13  O   UNL     1      -0.990   0.581   1.503  1.00  0.00    -0.267 OA
ATOM     14  C   UNL     1      -2.191  -0.864  -2.964  1.00  0.00     0.067 C 
ATOM     15  C   UNL     1      -3.132   1.973  -2.277  1.00  0.00     0.172 C 
BRANCH  12  16
ATOM     16  C   UNL     1      -3.651   1.885   0.836  1.00  0.00     0.067 A 
ATOM     17  C   UNL     1      -3.283   2.396   2.088  1.00  0.00     0.028 A 
ATOM     18  C   UNL     1      -4.994   2.006   0.447  1.00  0.00     0.028 A 
ATOM     19  C   UNL     1      -4.222   3.017   2.919  1.00  0.00     0.002 A 
ATOM     20  C   UNL     1      -5.935   2.624   1.276  1.00  0.00     0.002 A 
ATOM     21  C   UNL     1      -5.547   3.132   2.512  1.00  0.00     0.000 A 
ENDBRANCH  12  16
ENDBRANCH   7   8
BRANCH   7  22
ATOM     22  C   UNL     1       1.211  -0.680  -0.146  1.00  0.00     0.052 C 
ATOM     23  C   UNL     1       1.990  -0.724   0.952  1.00  0.00     0.042 C 
ATOM     24  C   UNL     1       1.886   0.286  -1.063  1.00  0.00     0.275 C 
ATOM     25  N   UNL     1       3.070   0.174   0.899  1.00  0.00    -0.285 N 
ATOM     26  N   UNL     1       3.029   0.741  -0.404  1.00  0.00    -0.218 N 
ATOM     27  O   UNL     1       1.478   0.521  -2.191  1.00  0.00    -0.267 OA
ATOM     28  C   UNL     1       1.771  -1.552   2.179  1.00  0.00     0.067 C 
ATOM     29  C   UNL     1       3.136   1.198   1.963  1.00  0.00     0.172 C 
BRANCH  26  30
ATOM     30  C   UNL     1       4.188   1.286  -1.013  1.00  0.00     0.067 A 
ATOM     31  C   UNL     1       5.448   1.178  -0.403  1.00  0.00     0.028 A 
ATOM     32  C   UNL     1       4.114   1.942  -2.250  1.00  0.00     0.028 A 
ATOM     33  C   UNL     1       6.592   1.716  -1.002  1.00  0.00     0.002 A 
ATOM     34  C   UNL     1       5.256   2.482  -2.851  1.00  0.00     0.002 A 
ATOM     35  C   UNL     1       6.495   2.370  -2.226  1.00  0.00     0.000 A 
ENDBRANCH  26  30
ENDBRANCH   7  22
ENDBRANCH   1   7
BRANCH   4  36
ATOM     36  O   UNL     1      -1.119  -6.422   1.762  1.00  0.00    -0.508 OA
ATOM     37  H   UNL     1      -0.619  -7.110   1.293  1.00  0.00     0.293 HD
ENDBRANCH   4  36
TORSDOF 6
