REMARK SMILES CNC(=O)c1cc(Cl)cc(C)c1NC(=O)c1cc(Br)nn1-c1ncccc1Cl
REMARK SMILES IDX 13 1 14 2 15 3 12 5 5 6 6 7 7 8 10 9 9 10 8 11 11 12 3 13
REMARK SMILES IDX 2 14 4 15 1 16 16 18 17 19 21 20 18 21 20 22 19 23 22 24
REMARK SMILES IDX 23 25 27 26 24 27 26 28 25 29 28 30
REMARK H PARENT 13 4 2 17
ROOT
ATOM      1  N   UNL     1      -0.228  -0.231  -0.663  1.00  0.00    -0.320 N 
ATOM      2  C   UNL     1       0.434  -0.500  -1.843  1.00  0.00     0.274 C 
ATOM      3  O   UNL     1       0.068  -1.332  -2.667  1.00  0.00    -0.267 OA
ATOM      4  H   UNL     1      -0.053   0.693  -0.264  1.00  0.00     0.170 HD
ENDROOT
BRANCH   1   5
ATOM      5  C   UNL     1      -1.331  -0.913  -0.090  1.00  0.00     0.057 A 
ATOM      6  C   UNL     1      -2.257  -0.133   0.659  1.00  0.00     0.065 A 
ATOM      7  C   UNL     1      -3.376  -0.726   1.261  1.00  0.00     0.036 A 
ATOM      8  C   UNL     1      -3.596  -2.087   1.110  1.00  0.00     0.042 A 
ATOM      9  C   UNL     1      -1.531  -2.308  -0.173  1.00  0.00    -0.025 A 
ATOM     10  C   UNL     1      -2.691  -2.870   0.401  1.00  0.00     0.026 A 
ATOM     11  Cl  UNL     1      -4.978  -2.814   1.831  1.00  0.00    -0.084 Cl
ATOM     12  C   UNL     1      -0.561  -3.281  -0.790  1.00  0.00     0.046 C 
BRANCH   6  13
ATOM     13  C   UNL     1      -2.055   1.340   0.815  1.00  0.00     0.253 C 
ATOM     14  N   UNL     1      -3.192   2.118   0.897  1.00  0.00    -0.355 N 
ATOM     15  O   UNL     1      -0.918   1.805   0.820  1.00  0.00    -0.269 OA
ATOM     16  C   UNL     1      -3.094   3.558   0.924  1.00  0.00     0.143 C 
ATOM     17  H   UNL     1      -4.078   1.720   0.615  1.00  0.00     0.163 HD
ENDBRANCH   6  13
ENDBRANCH   1   5
BRANCH   2  18
ATOM     18  C   UNL     1       1.502   0.427  -2.149  1.00  0.00     0.135 A 
ATOM     19  C   UNL     1       1.739   1.011  -3.383  1.00  0.00     0.072 A 
ATOM     20  N   UNL     1       2.504   0.902  -1.301  1.00  0.00    -0.207 N 
ATOM     21  C   UNL     1       2.790   1.895  -3.163  1.00  0.00     0.129 A 
ATOM     22  N   UNL     1       3.232   1.876  -1.912  1.00  0.00    -0.159 NA
ATOM     23  Br  UNL     1       3.495   3.020  -4.490  1.00  0.00    -0.027 Br
BRANCH  20  24
ATOM     24  C   UNL     1       2.858   0.393  -0.005  1.00  0.00     0.173 A 
ATOM     25  N   UNL     1       2.383  -0.857   0.290  1.00  0.00    -0.236 NA
ATOM     26  C   UNL     1       3.670   1.100   0.889  1.00  0.00     0.085 A 
ATOM     27  C   UNL     1       2.718  -1.411   1.474  1.00  0.00     0.113 A 
ATOM     28  C   UNL     1       3.996   0.486   2.106  1.00  0.00     0.026 A 
ATOM     29  C   UNL     1       3.519  -0.786   2.405  1.00  0.00     0.022 A 
ATOM     30  Cl  UNL     1       4.252   2.715   0.695  1.00  0.00    -0.080 Cl
ENDBRANCH  20  24
ENDBRANCH   2  18
TORSDOF 4
