REMARK SMILES Cc1nc(Nc2ncc(C(=O)Nc3c(C)cccc3Cl)s2)cc(N2CCN(CCO)CC2)n1
REMARK SMILES IDX 1 1 2 2 3 3 4 4 22 5 23 6 33 7 5 8 6 10 7 11 21 12 8 13 9 14
REMARK SMILES IDX 10 15 11 16 12 17 13 19 14 20 19 21 16 22 18 23 17 24 15 25
REMARK SMILES IDX 20 26 24 27 25 28 32 29 26 30 31 31 27 32 28 33 29 34 30 35
REMARK H PARENT 5 9 12 18 30 36
ROOT
ATOM      1  C   UNL     1      -1.055   0.860  -3.020  1.00  0.00     0.090 C 
ATOM      2  C   UNL     1      -1.424   0.689  -1.580  1.00  0.00     0.130 A 
ATOM      3  N   UNL     1      -0.457   0.304  -0.735  1.00  0.00    -0.216 NA
ATOM      4  C   UNL     1      -0.776   0.195   0.561  1.00  0.00     0.137 A 
ATOM      5  C   UNL     1      -2.058   0.469   1.004  1.00  0.00     0.094 A 
ATOM      6  C   UNL     1      -3.007   0.855   0.073  1.00  0.00     0.134 A 
ATOM      7  N   UNL     1      -2.688   0.970  -1.224  1.00  0.00    -0.216 NA
ENDROOT
BRANCH   4   8
ATOM      8  N   UNL     1       0.188  -0.177   1.526  1.00  0.00    -0.316 N 
ATOM      9  H   UNL     1      -0.179  -0.899   2.134  1.00  0.00     0.170 HD
BRANCH   8  10
ATOM     10  C   UNL     1       1.516  -0.325   1.299  1.00  0.00     0.189 A 
ATOM     11  N   UNL     1       2.202  -1.270   1.908  1.00  0.00    -0.228 NA
ATOM     12  S   UNL     1       2.477   0.728   0.325  1.00  0.00    -0.091 S 
ATOM     13  C   UNL     1       3.534  -1.207   1.548  1.00  0.00     0.139 A 
ATOM     14  C   UNL     1       3.884  -0.174   0.703  1.00  0.00     0.114 A 
BRANCH  14  15
ATOM     15  C   UNL     1       5.171   0.198   0.139  1.00  0.00     0.267 C 
ATOM     16  O   UNL     1       5.287   0.993  -0.788  1.00  0.00    -0.268 OA
ATOM     17  N   UNL     1       6.250  -0.383   0.790  1.00  0.00    -0.320 N 
ATOM     18  H   UNL     1       6.088  -0.605   1.766  1.00  0.00     0.170 HD
BRANCH  17  19
ATOM     19  C   UNL     1       7.624  -0.227   0.463  1.00  0.00     0.063 A 
ATOM     20  C   UNL     1       8.139  -0.191  -0.848  1.00  0.00    -0.026 A 
ATOM     21  C   UNL     1       8.530  -0.165   1.546  1.00  0.00     0.064 A 
ATOM     22  C   UNL     1       9.522   0.022  -1.030  1.00  0.00     0.005 A 
ATOM     23  C   UNL     1       9.899   0.020   1.346  1.00  0.00     0.023 A 
ATOM     24  C   UNL     1      10.393   0.131   0.053  1.00  0.00     0.002 A 
ATOM     25  C   UNL     1       7.324  -0.411  -2.094  1.00  0.00     0.046 C 
ATOM     26  Cl  UNL     1       7.968  -0.288   3.184  1.00  0.00    -0.082 Cl
ENDBRANCH  17  19
ENDBRANCH  14  15
ENDBRANCH   8  10
ENDBRANCH   4   8
BRANCH   6  27
ATOM     27  N   UNL     1      -4.320   1.134   0.506  1.00  0.00    -0.354 N 
ATOM     28  C   UNL     1      -5.143   1.884  -0.470  1.00  0.00     0.133 C 
ATOM     29  C   UNL     1      -4.981  -0.077   1.050  1.00  0.00     0.133 C 
ATOM     30  C   UNL     1      -6.044   0.932  -1.284  1.00  0.00     0.106 C 
ATOM     31  C   UNL     1      -6.522   0.005   0.928  1.00  0.00     0.106 C 
ATOM     32  N   UNL     1      -7.040   0.208  -0.447  1.00  0.00    -0.298 NA
BRANCH  32  33
ATOM     33  C   UNL     1      -7.430  -1.054  -1.113  1.00  0.00     0.112 C 
BRANCH  33  34
ATOM     34  C   UNL     1      -8.755  -1.601  -0.559  1.00  0.00     0.171 C 
BRANCH  34  35
ATOM     35  O   UNL     1      -9.738  -0.567  -0.549  1.00  0.00    -0.395 OA
ATOM     36  H   UNL     1      -9.235   0.251  -0.357  1.00  0.00     0.210 HD
ENDBRANCH  34  35
ENDBRANCH  33  34
ENDBRANCH  32  33
ENDBRANCH   6  27
TORSDOF 8
