REMARK SMILES CC1=C(C(=O)Nc2cccnc2)C(c2ccc(C(C)C)cc2)n2ncnc2N1
REMARK SMILES IDX 1 1 2 2 3 3 13 4 23 5 24 6 25 7 26 8 27 9 28 10 4 12 5 13
REMARK SMILES IDX 6 14 7 16 8 17 12 18 9 19 11 20 10 21 14 22 15 23 22 24
REMARK SMILES IDX 16 25 21 26 17 27 18 28 19 29 20 30
REMARK H PARENT 28 11 6 15
ROOT
ATOM      1  C   UNL     1       3.234  -0.819  -2.772  1.00  0.00     0.065 C 
ATOM      2  C   UNL     1       2.225   0.280  -2.557  1.00  0.00     0.026 C 
ATOM      3  C   UNL     1       1.851   0.754  -1.346  1.00  0.00     0.065 C 
ATOM      4  C   UNL     1       0.868   1.903  -1.183  1.00  0.00     0.179 C 
ATOM      5  N   UNL     1       0.530   2.487  -2.486  1.00  0.00    -0.219 N 
ATOM      6  N   UNL     1      -0.163   3.632  -2.657  1.00  0.00    -0.157 NA
ATOM      7  C   UNL     1      -0.189   3.708  -3.992  1.00  0.00     0.248 A 
ATOM      8  N   UNL     1       0.464   2.704  -4.661  1.00  0.00    -0.200 NA
ATOM      9  C   UNL     1       0.925   1.961  -3.688  1.00  0.00     0.226 A 
ATOM     10  N   UNL     1       1.692   0.852  -3.708  1.00  0.00    -0.328 N 
ATOM     11  H   UNL     1       2.058   0.538  -4.603  1.00  0.00     0.169 HD
ENDROOT
BRANCH   3  12
ATOM     12  C   UNL     1       2.406   0.237  -0.074  1.00  0.00     0.255 C 
ATOM     13  O   UNL     1       3.191   0.928   0.559  1.00  0.00    -0.269 OA
ATOM     14  N   UNL     1       1.896  -0.998   0.255  1.00  0.00    -0.321 N 
ATOM     15  H   UNL     1       1.176  -1.373  -0.352  1.00  0.00     0.170 HD
BRANCH  14  16
ATOM     16  C   UNL     1       2.191  -1.758   1.406  1.00  0.00     0.059 A 
ATOM     17  C   UNL     1       3.144  -1.407   2.358  1.00  0.00     0.029 A 
ATOM     18  C   UNL     1       1.496  -2.949   1.619  1.00  0.00     0.137 A 
ATOM     19  C   UNL     1       3.361  -2.235   3.460  1.00  0.00     0.022 A 
ATOM     20  N   UNL     1       1.684  -3.776   2.676  1.00  0.00    -0.263 NA
ATOM     21  C   UNL     1       2.615  -3.396   3.575  1.00  0.00     0.111 A 
ENDBRANCH  14  16
ENDBRANCH   3  12
BRANCH   4  22
ATOM     22  C   UNL     1      -0.388   1.440  -0.445  1.00  0.00    -0.019 A 
ATOM     23  C   UNL     1      -0.551   1.764   0.910  1.00  0.00     0.006 A 
ATOM     24  C   UNL     1      -1.351   0.621  -1.058  1.00  0.00     0.006 A 
ATOM     25  C   UNL     1      -1.648   1.286   1.631  1.00  0.00     0.004 A 
ATOM     26  C   UNL     1      -2.448   0.147  -0.334  1.00  0.00     0.004 A 
ATOM     27  C   UNL     1      -2.610   0.471   1.020  1.00  0.00    -0.045 A 
BRANCH  27  28
ATOM     28  C   UNL     1      -3.790  -0.039   1.828  1.00  0.00     0.013 C 
ATOM     29  C   UNL     1      -3.779  -1.566   1.932  1.00  0.00     0.012 C 
ATOM     30  C   UNL     1      -5.121   0.460   1.260  1.00  0.00     0.012 C 
ENDBRANCH  27  28
ENDBRANCH   4  22
TORSDOF 4
