REMARK SMILES CCC1=C(C)C(=O)C23OC(=O)CC(C)C4(O2)C(OC)=CC(=O)C4(O)C13C
REMARK SMILES IDX 3 1 4 2 5 3 6 4 7 5 8 6 15 7 16 8 17 9 20 10 21 11 22 12
REMARK SMILES IDX 23 13 25 14 26 15 2 16 1 17 24 18 9 20 10 21 11 22 13 24
REMARK SMILES IDX 14 25 12 26 18 28 19 29
REMARK H PARENT 24 19
REMARK Flexibility Score:    7.900
ROOT
ATOM      1  C   UNL     1       2.105   0.613  -0.259  1.00  0.00    -0.047 C 
ATOM      2  C   UNL     1       2.337   1.311   0.865  1.00  0.00    -0.001 C 
ATOM      3  C   UNL     1       3.294   2.400   1.175  1.00  0.00     0.048 C 
ATOM      4  C   UNL     1       1.431   0.778   1.905  1.00  0.00     0.231 C 
ATOM      5  O   UNL     1       1.462   1.170   3.064  1.00  0.00    -0.287 OA
ATOM      6  C   UNL     1       0.481  -0.269   1.331  1.00  0.00     0.291 C 
ATOM      7  C   UNL     1      -1.425  -0.205   0.087  1.00  0.00     0.170 C 
ATOM      8  O   UNL     1      -0.808   0.305   1.279  1.00  0.00    -0.314 OA
ATOM      9  C   UNL     1      -2.360   0.898  -0.343  1.00  0.00     0.135 C 
ATOM     10  C   UNL     1      -1.861   1.697  -1.293  1.00  0.00     0.095 C 
ATOM     11  C   UNL     1      -0.543   1.144  -1.629  1.00  0.00     0.195 C 
ATOM     12  O   UNL     1       0.178   1.673  -2.464  1.00  0.00    -0.291 OA
ATOM     13  C   UNL     1      -0.285  -0.204  -0.964  1.00  0.00     0.179 C 
ATOM     14  C   UNL     1       1.000  -0.441  -0.130  1.00  0.00     0.102 C 
ATOM     15  C   UNL     1       1.634  -1.828  -0.362  1.00  0.00     0.027 C 
ENDROOT
BRANCH   1  16
ATOM     16  C   UNL     1       2.869   0.788  -1.547  1.00  0.00     0.029 C 
ATOM     17  C   UNL     1       4.278   0.209  -1.491  1.00  0.00     0.009 C 
ENDBRANCH   1  16
BRANCH  13  18
ATOM     18  O   UNL     1      -0.455  -1.168  -2.008  1.00  0.00    -0.377 OA
ATOM     19  H   UNL     1       0.152  -0.918  -2.733  1.00  0.00     0.212 HD
ENDBRANCH  13  18
BRANCH   6  20
ATOM     20  O   UNL     1       0.538  -1.458   2.120  1.00  0.00    -0.424 OA
BRANCH  20  21
ATOM     21  C   UNL     1      -0.500  -2.282   2.374  1.00  0.00     0.309 CG0
ATOM     22  O   UNL     1      -0.306  -3.321   3.002  1.00  0.00    -0.252 OA
ATOM     23  G   UNL     1      -1.898  -1.931   1.898  1.00  0.00     0.000 G0
ENDBRANCH  20  21
ENDBRANCH   6  20
BRANCH   7  24
ATOM     24  C   UNL     1      -1.969  -1.631   0.393  1.00  0.00     0.041 C 
ATOM     25  C   UNL     1      -3.363  -1.921  -0.169  1.00  0.00     0.012 C 
BRANCH  24  26
ATOM     26  C   UNL     1      -1.898  -1.931   1.898  1.00  0.00     0.129 CG0
ATOM     27  G   UNL     1      -0.500  -2.282   2.374  1.00  0.00     0.000 G0
ENDBRANCH  24  26
ENDBRANCH   7  24
BRANCH   9  28
ATOM     28  O   UNL     1      -3.540   1.035   0.341  1.00  0.00    -0.498 OA
ATOM     29  C   UNL     1      -4.353   2.156   0.009  1.00  0.00     0.278 C 
ENDBRANCH   9  28
TORSDOF 3
