REMARK SMILES NC(=O)C1=CC2C3C=CC2C(OC3=O)O1
REMARK SMILES IDX 1 1 2 2 3 3 4 6 5 7 15 8 6 9 11 10 7 11 10 12 12 13 8 14
REMARK SMILES IDX 13 15 9 16 14 17
REMARK H PARENT 1 4 1 5
ROOT
ATOM      1  N   UNL     1       3.629   0.707  -0.199  1.00  0.00    -0.363 N 
ATOM      2  C   UNL     1       3.043  -0.349   0.432  1.00  0.00     0.283 C 
ATOM      3  O   UNL     1       3.695  -1.140   1.100  1.00  0.00    -0.266 OA
ATOM      4  H   UNL     1       4.608   0.856   0.008  1.00  0.00     0.160 HD
ATOM      5  H   UNL     1       3.089   1.502  -0.511  1.00  0.00     0.160 HD
ENDROOT
BRANCH   2   6
ATOM      6  C   UNL     1       1.554  -0.439   0.302  1.00  0.00     0.184 C 
ATOM      7  C   UNL     1       0.958  -0.209  -0.884  1.00  0.00     0.031 C 
ATOM      8  O   UNL     1       0.847  -0.805   1.438  1.00  0.00    -0.449 OA
ATOM      9  C   UNL     1      -0.521  -0.414  -1.058  1.00  0.00     0.048 C 
ATOM     10  C   UNL     1      -0.563  -0.536   1.351  1.00  0.00     0.374 C 
ATOM     11  C   UNL     1      -1.389   0.845  -0.970  1.00  0.00     0.129 C 
ATOM     12  C   UNL     1      -1.141  -1.211   0.095  1.00  0.00     0.102 C 
ATOM     13  O   UNL     1      -0.799   0.903   1.411  1.00  0.00    -0.424 OA
ATOM     14  C   UNL     1      -2.753   0.237  -0.746  1.00  0.00    -0.015 C 
ATOM     15  C   UNL     1      -1.058   1.636   0.290  1.00  0.00     0.316 C 
ATOM     16  C   UNL     1      -2.610  -0.938  -0.116  1.00  0.00    -0.019 C 
ATOM     17  O   UNL     1      -1.087   2.862   0.318  1.00  0.00    -0.251 OA
ENDBRANCH   2   6
TORSDOF 1
