REMARK SMILES C=CC(C)(C)C12Nc3c(ccc4c3OC(C)(C)C=C4)C1(O)CC1C(=O)N3CCCC3C(=O)N12
REMARK SMILES IDX 6 1 7 2 8 3 9 4 10 5 11 6 12 7 13 8 14 9 15 10 16 11 17 12
REMARK SMILES IDX 18 13 19 14 20 15 22 16 23 17 24 18 25 19 26 20 27 21 28 22
REMARK SMILES IDX 29 23 30 24 31 25 32 26 33 27 3 29 4 30 5 31 2 32 1 33 21 34
REMARK H PARENT 7 28 21 35
ROOT
ATOM      1  C   UNL     1       0.537   0.847  -0.712  1.00  0.00     0.156 C 
ATOM      2  N   UNL     1      -0.775   0.899  -0.042  1.00  0.00    -0.356 N 
ATOM      3  C   UNL     1      -1.577  -0.079  -0.673  1.00  0.00     0.086 A 
ATOM      4  C   UNL     1      -1.065  -0.497  -1.902  1.00  0.00     0.015 A 
ATOM      5  C   UNL     1      -1.753  -1.399  -2.700  1.00  0.00     0.010 A 
ATOM      6  C   UNL     1      -2.980  -1.886  -2.242  1.00  0.00     0.012 A 
ATOM      7  C   UNL     1      -3.508  -1.464  -1.007  1.00  0.00     0.019 A 
ATOM      8  C   UNL     1      -2.806  -0.545  -0.220  1.00  0.00     0.151 A 
ATOM      9  O   UNL     1      -3.236  -0.097   0.994  1.00  0.00    -0.481 OA
ATOM     10  C   UNL     1      -4.573  -0.426   1.420  1.00  0.00     0.122 C 
ATOM     11  C   UNL     1      -4.444  -0.914   2.868  1.00  0.00     0.061 C 
ATOM     12  C   UNL     1      -5.386   0.873   1.383  1.00  0.00     0.061 C 
ATOM     13  C   UNL     1      -5.277  -1.487   0.601  1.00  0.00     0.021 C 
ATOM     14  C   UNL     1      -4.784  -1.982  -0.537  1.00  0.00     0.012 C 
ATOM     15  C   UNL     1       0.262   0.170  -2.150  1.00  0.00     0.137 C 
ATOM     16  C   UNL     1       1.428  -0.799  -2.332  1.00  0.00     0.080 C 
ATOM     17  C   UNL     1       1.717  -1.287  -0.924  1.00  0.00     0.180 C 
ATOM     18  C   UNL     1       3.189  -1.651  -0.677  1.00  0.00     0.246 C 
ATOM     19  O   UNL     1       3.974  -1.997  -1.550  1.00  0.00    -0.272 OA
ATOM     20  N   UNL     1       3.498  -1.616   0.668  1.00  0.00    -0.329 N 
ATOM     21  C   UNL     1       4.818  -1.745   1.232  1.00  0.00     0.120 C 
ATOM     22  C   UNL     1       4.669  -1.049   2.577  1.00  0.00     0.024 C 
ATOM     23  C   UNL     1       3.236  -1.381   3.005  1.00  0.00     0.037 C 
ATOM     24  C   UNL     1       2.464  -1.499   1.692  1.00  0.00     0.174 C 
ATOM     25  C   UNL     1       1.537  -0.320   1.344  1.00  0.00     0.248 C 
ATOM     26  O   UNL     1       0.940   0.335   2.192  1.00  0.00    -0.272 OA
ATOM     27  N   UNL     1       1.340  -0.184  -0.025  1.00  0.00    -0.302 N 
ATOM     28  H   UNL     1      -0.732   0.766   0.970  1.00  0.00     0.163 HD
ENDROOT
BRANCH   1  29
ATOM     29  C   UNL     1       1.220   2.293  -0.746  1.00  0.00     0.028 C 
ATOM     30  C   UNL     1       0.262   3.354  -1.353  1.00  0.00     0.020 C 
ATOM     31  C   UNL     1       1.537   2.822   0.677  1.00  0.00     0.020 C 
BRANCH  29  32
ATOM     32  C   UNL     1       2.578   2.242  -1.463  1.00  0.00    -0.024 C 
ATOM     33  C   UNL     1       2.939   2.871  -2.589  1.00  0.00     0.005 C 
ENDBRANCH  29  32
ENDBRANCH   1  29
BRANCH  15  34
ATOM     34  O   UNL     1       0.142   1.006  -3.288  1.00  0.00    -0.380 OA
ATOM     35  H   UNL     1      -0.766   1.361  -3.285  1.00  0.00     0.212 HD
ENDBRANCH  15  34
TORSDOF 3
