REMARK SMILES CC1OC2OC(=O)C3(C)CC4C5(CO5)C5=CC(=O)OC(C)(C)C5=CC(=O)C4(C)C(C1=O)C23
REMARK SMILES IDX 12 1 13 2 14 3 11 4 2 5 3 6 30 7 4 8 29 9 31 10 5 11 32 12
REMARK SMILES IDX 27 13 6 14 8 15 7 16 10 17 1 18 28 19 9 20 15 22 16 23 23 24
REMARK SMILES IDX 17 25 20 26 24 27 18 28 19 29 21 30 22 31 25 32 26 33
REMARK H PARENT
REMARK Flexibility Score:   14.900
ROOT
ATOM      1  C   UNL     1      -1.242  -1.555  -0.153  1.00  0.00     0.121 C 
ATOM      2  C   UNL     1      -1.611  -2.148  -1.520  1.00  0.00     0.202 C 
ATOM      3  O   UNL     1      -1.252  -2.978  -0.421  1.00  0.00    -0.364 OA
ENDROOT
BRANCH   1   4
ATOM      4  C   UNL     1       0.181  -1.024   0.136  1.00  0.00     0.044 C 
ATOM      5  C   UNL     1       3.638   2.587   0.420  1.00  0.00     0.186 C 
ATOM      6  O   UNL     1       4.639   1.629   0.094  1.00  0.00    -0.331 OA
ATOM      7  C   UNL     1       2.279   2.263  -0.201  1.00  0.00     0.166 C 
ATOM      8  C   UNL     1       4.274   0.257   0.042  1.00  0.00     0.316 C 
ATOM      9  C   UNL     1       1.843   0.827   0.019  1.00  0.00     0.083 C 
ATOM     10  O   UNL     1       1.623   3.082  -0.837  1.00  0.00    -0.296 OA
ATOM     11  O   UNL     1       4.171  -0.402   1.304  1.00  0.00    -0.435 OA
ATOM     12  C   UNL     1       2.937  -0.043  -0.624  1.00  0.00     0.087 C 
ATOM     13  C   UNL     1       0.393   0.440  -0.373  1.00  0.00     0.047 CG0
ATOM     14  C   UNL     1       3.339  -1.490   1.153  1.00  0.00     0.314 C 
ATOM     15  C   UNL     1       2.754  -1.509  -0.256  1.00  0.00     0.075 C 
ATOM     16  O   UNL     1       3.112  -2.304   2.032  1.00  0.00    -0.252 OA
ATOM     17  C   UNL     1       1.295  -1.987  -0.356  1.00  0.00     0.027 C 
ATOM     18  C   UNL     1       3.543   2.781   1.926  1.00  0.00     0.047 C 
ATOM     19  C   UNL     1       0.150   0.592  -1.886  1.00  0.00     0.021 C 
ATOM     20  C   UNL     1       3.627  -2.458  -1.102  1.00  0.00     0.024 C 
ATOM     21  G   UNL     1      -0.546   1.350   0.438  1.00  0.00     0.000 G0
ENDBRANCH   1   4
BRANCH   1  22
ATOM     22  C   UNL     1      -2.376  -0.959   0.613  1.00  0.00     0.001 C 
ATOM     23  C   UNL     1      -3.105  -1.662   1.496  1.00  0.00     0.100 C 
ATOM     24  C   UNL     1      -2.825   0.390   0.276  1.00  0.00     0.005 C 
ATOM     25  C   UNL     1      -4.323  -1.126   2.110  1.00  0.00     0.332 C 
ATOM     26  C   UNL     1      -4.349   0.519   0.290  1.00  0.00     0.132 C 
ATOM     27  C   UNL     1      -1.987   1.430   0.112  1.00  0.00     0.056 C 
ATOM     28  O   UNL     1      -4.833  -1.680   3.075  1.00  0.00    -0.247 OA
ATOM     29  O   UNL     1      -4.858  -0.024   1.538  1.00  0.00    -0.452 OA
ATOM     30  C   UNL     1      -4.871   1.967   0.262  1.00  0.00     0.062 C 
ATOM     31  C   UNL     1      -5.002  -0.239  -0.879  1.00  0.00     0.062 C 
BRANCH  27  32
ATOM     32  C   UNL     1      -0.546   1.350   0.438  1.00  0.00     0.163 CG0
ATOM     33  O   UNL     1      -0.155   2.007   1.404  1.00  0.00    -0.294 OA
ATOM     34  G   UNL     1       0.393   0.440  -0.373  1.00  0.00     0.000 G0
ENDBRANCH  27  32
ENDBRANCH   1  22
TORSDOF 0
