REMARK SMILES C=C1C(=O)OC2C(OC(=O)C=C(C)C)C(C)=C3C(=O)C=C(C)C3C(O)C12
REMARK SMILES IDX 7 1 6 2 1 3 2 4 3 5 26 6 4 7 5 8 8 10 9 11 10 12 11 13 12 14
REMARK SMILES IDX 13 15 14 16 15 17 17 18 18 19 23 20 19 21 20 22 21 23 16 24
REMARK SMILES IDX 22 25 24 26 25 28
REMARK H PARENT 25 29
REMARK Flexibility Score:   12.900
ROOT
ATOM      1  C   UNL     1       0.795  -0.534   1.292  1.00  0.00     0.245 C 
ENDROOT
BRANCH   1   2
ATOM      2  C   UNL     1      -0.269   0.140   2.175  1.00  0.00     0.232 C 
ATOM      3  C   UNL     1      -2.950   2.319   2.936  1.00  0.00     0.021 C 
ATOM      4  C   UNL     1      -1.761   1.797   2.612  1.00  0.00     0.040 C 
ATOM      5  C   UNL     1      -0.581   1.960   3.500  1.00  0.00     0.334 C 
ATOM      6  C   UNL     1      -1.311   0.971   1.442  1.00  0.00     0.101 CG0
ATOM      7  O   UNL     1      -0.460   2.748   4.418  1.00  0.00    -0.247 OA
ATOM      8  O   UNL     1       0.357   1.064   3.084  1.00  0.00    -0.454 OA
ATOM      9  G   UNL     1      -2.357   0.158   0.654  1.00  0.00     0.000 G0
ENDBRANCH   1   2
BRANCH   1  10
ATOM     10  O   UNL     1       1.189   0.355   0.232  1.00  0.00    -0.451 OA
BRANCH  10  11
ATOM     11  C   UNL     1       2.492   0.294  -0.145  1.00  0.00     0.331 C 
ATOM     12  O   UNL     1       3.346  -0.439   0.317  1.00  0.00    -0.247 OA
BRANCH  11  13
ATOM     13  C   UNL     1       2.683   1.296  -1.222  1.00  0.00     0.092 C 
ATOM     14  C   UNL     1       3.706   1.336  -2.097  1.00  0.00    -0.069 C 
ATOM     15  C   UNL     1       4.823   0.332  -2.190  1.00  0.00     0.039 C 
ATOM     16  C   UNL     1       3.799   2.454  -3.103  1.00  0.00     0.039 C 
ENDBRANCH  11  13
ENDBRANCH  10  11
ENDBRANCH   1  10
BRANCH   1  17
ATOM     17  C   UNL     1       0.245  -1.817   0.695  1.00  0.00    -0.021 C 
ATOM     18  C   UNL     1      -0.890  -1.837  -0.035  1.00  0.00     0.012 C 
ATOM     19  C   UNL     1      -1.569  -3.062  -0.558  1.00  0.00     0.182 C 
ATOM     20  C   UNL     1      -1.722  -0.661  -0.509  1.00  0.00     0.078 C 
ATOM     21  O   UNL     1      -1.333  -4.220  -0.278  1.00  0.00    -0.290 OA
ATOM     22  C   UNL     1      -2.646  -2.651  -1.464  1.00  0.00     0.052 C 
ATOM     23  C   UNL     1      -2.725  -1.315  -1.447  1.00  0.00    -0.059 C 
ATOM     24  C   UNL     1       1.069  -3.036   1.029  1.00  0.00     0.044 C 
ATOM     25  C   UNL     1      -3.604  -0.525  -2.358  1.00  0.00     0.040 C 
BRANCH  20  26
ATOM     26  C   UNL     1      -2.357   0.158   0.654  1.00  0.00     0.137 CG0
ATOM     27  G   UNL     1      -1.311   0.971   1.442  1.00  0.00     0.000 G0
BRANCH  26  28
ATOM     28  O   UNL     1      -3.279   1.109   0.100  1.00  0.00    -0.391 OA
ATOM     29  H   UNL     1      -4.162   0.699   0.116  1.00  0.00     0.211 HD
ENDBRANCH  26  28
ENDBRANCH  20  26
ENDBRANCH   1  17
TORSDOF 4
