REMARK SMILES Cc1cc(C)c2nc(NC3=NCN(CCN4CCOCC4)CN3)nc(C)c2c1
REMARK SMILES IDX 9 1 10 2 11 3 12 4 13 5 22 6 23 7 8 10 2 11 3 12 28 13 4 14
REMARK SMILES IDX 27 15 6 16 25 17 7 18 24 19 1 20 5 21 26 22 14 23 15 24
REMARK SMILES IDX 16 25 17 26 21 27 18 28 20 29 19 30
REMARK H PARENT 9 8 23 9
ROOT
ATOM      1  N   UNL     1      -1.531  -1.192  -0.052  1.00  0.00    -0.295 N 
ATOM      2  C   UNL     1      -0.290  -0.748   0.289  1.00  0.00     0.200 C 
ATOM      3  N   UNL     1       0.029   0.455   0.605  1.00  0.00    -0.237 NA
ATOM      4  C   UNL     1       1.422   0.722   0.938  1.00  0.00     0.234 C 
ATOM      5  N   UNL     1       2.387  -0.117   0.228  1.00  0.00    -0.265 NA
ATOM      6  C   UNL     1       1.981  -1.484   0.492  1.00  0.00     0.205 C 
ATOM      7  N   UNL     1       0.592  -1.798   0.258  1.00  0.00    -0.343 N 
ATOM      8  H   UNL     1      -1.753  -2.145   0.182  1.00  0.00     0.173 HD
ATOM      9  H   UNL     1       0.468  -2.358  -0.577  1.00  0.00     0.164 HD
ENDROOT
BRANCH   1  10
ATOM     10  C   UNL     1      -2.709  -0.455  -0.106  1.00  0.00     0.230 A 
ATOM     11  C   UNL     1      -7.572   0.686  -0.158  1.00  0.00    -0.050 A 
ATOM     12  C   UNL     1      -7.462  -0.691   0.017  1.00  0.00     0.009 A 
ATOM     13  C   UNL     1      -6.402   1.434  -0.302  1.00  0.00     0.015 A 
ATOM     14  C   UNL     1      -6.201  -1.311   0.076  1.00  0.00    -0.024 A 
ATOM     15  C   UNL     1      -5.127   0.817  -0.245  1.00  0.00     0.022 A 
ATOM     16  C   UNL     1      -5.021  -0.565  -0.052  1.00  0.00     0.079 A 
ATOM     17  C   UNL     1      -3.909   1.492  -0.373  1.00  0.00     0.051 A 
ATOM     18  N   UNL     1      -3.831  -1.184   0.010  1.00  0.00    -0.212 NA
ATOM     19  N   UNL     1      -2.719   0.863  -0.313  1.00  0.00    -0.217 NA
ATOM     20  C   UNL     1      -8.917   1.342  -0.253  1.00  0.00     0.044 C 
ATOM     21  C   UNL     1      -6.126  -2.803   0.276  1.00  0.00     0.047 C 
ATOM     22  C   UNL     1      -3.835   2.976  -0.588  1.00  0.00     0.067 C 
ENDBRANCH   1  10
BRANCH   5  23
ATOM     23  C   UNL     1       3.755   0.176   0.687  1.00  0.00     0.103 C 
BRANCH  23  24
ATOM     24  C   UNL     1       4.845  -0.507  -0.176  1.00  0.00     0.100 C 
BRANCH  24  25
ATOM     25  N   UNL     1       6.211  -0.174   0.265  1.00  0.00    -0.297 NA
ATOM     26  C   UNL     1       6.627   1.196  -0.117  1.00  0.00     0.113 C 
ATOM     27  C   UNL     1       7.180  -1.167  -0.251  1.00  0.00     0.113 C 
ATOM     28  C   UNL     1       7.583   1.243  -1.321  1.00  0.00     0.175 C 
ATOM     29  C   UNL     1       8.615  -0.622  -0.236  1.00  0.00     0.175 C 
ATOM     30  O   UNL     1       8.790   0.498  -1.114  1.00  0.00    -0.379 OA
ENDBRANCH  24  25
ENDBRANCH  23  24
ENDBRANCH   5  23
TORSDOF 4
