REMARK SMILES CC1(C)C=Cc2c(ccc3c2[N+]([O-])=C2C3(O)CC34NC(=O)C5(CCCN5C3=O)CC4C2(C)C)O1
REMARK SMILES IDX 1 1 2 2 3 3 4 4 5 5 6 6 7 7 8 8 9 9 10 10 11 11 12 12 13 13
REMARK SMILES IDX 14 14 15 15 17 16 18 17 19 18 20 19 21 20 22 21 23 22 24 23
REMARK SMILES IDX 25 24 26 25 27 26 28 27 29 28 30 29 31 30 32 31 33 32 34 33
REMARK SMILES IDX 16 35
REMARK H PARENT 19 34 16 36
ROOT
ATOM      1  C   UNL     1       7.410  -1.068   0.691  1.00  0.00     0.061 C 
ATOM      2  C   UNL     1       6.467  -0.428  -0.335  1.00  0.00     0.122 C 
ATOM      3  C   UNL     1       7.288   0.272  -1.424  1.00  0.00     0.061 C 
ATOM      4  C   UNL     1       5.612  -1.502  -0.960  1.00  0.00     0.021 C 
ATOM      5  C   UNL     1       4.277  -1.452  -0.996  1.00  0.00     0.019 C 
ATOM      6  C   UNL     1       3.610  -0.301  -0.409  1.00  0.00     0.090 A 
ATOM      7  C   UNL     1       4.387   0.668   0.246  1.00  0.00     0.134 A 
ATOM      8  C   UNL     1       3.799   1.797   0.848  1.00  0.00     0.048 A 
ATOM      9  C   UNL     1       2.420   1.994   0.809  1.00  0.00     0.018 A 
ATOM     10  C   UNL     1       1.651   1.039   0.169  1.00  0.00     0.068 A 
ATOM     11  C   UNL     1       2.236  -0.078  -0.429  1.00  0.00     0.234 A 
ATOM     12  N   UNL     1       1.183  -0.889  -0.987  1.00  0.00    -0.169 N 
ATOM     13  O   UNL     1       1.374  -1.996  -1.569  1.00  0.00    -0.618 OA
ATOM     14  C   UNL     1       0.008  -0.347  -0.743  1.00  0.00     0.212 C 
ATOM     15  C   UNL     1       0.174   0.989  -0.050  1.00  0.00     0.180 C 
ATOM     16  C   UNL     1      -0.641   1.003   1.240  1.00  0.00     0.090 C 
ATOM     17  C   UNL     1      -2.078   0.510   1.038  1.00  0.00     0.127 C 
ATOM     18  N   UNL     1      -2.734   0.286   2.354  1.00  0.00    -0.339 N 
ATOM     19  C   UNL     1      -4.043  -0.198   2.327  1.00  0.00     0.246 C 
ATOM     20  O   UNL     1      -4.599  -0.664   3.309  1.00  0.00    -0.272 OA
ATOM     21  C   UNL     1      -4.575  -0.206   0.875  1.00  0.00     0.122 C 
ATOM     22  C   UNL     1      -6.081  -0.371   0.709  1.00  0.00     0.041 C 
ATOM     23  C   UNL     1      -6.597   1.075   0.655  1.00  0.00     0.024 C 
ATOM     24  C   UNL     1      -5.486   1.837  -0.060  1.00  0.00     0.121 C 
ATOM     25  N   UNL     1      -4.299   1.132   0.354  1.00  0.00    -0.326 N 
ATOM     26  C   UNL     1      -2.994   1.578   0.363  1.00  0.00     0.249 C 
ATOM     27  O   UNL     1      -2.597   2.627  -0.124  1.00  0.00    -0.272 OA
ATOM     28  C   UNL     1      -3.709  -1.211   0.092  1.00  0.00     0.046 C 
ATOM     29  C   UNL     1      -2.193  -0.836   0.242  1.00  0.00     0.043 C 
ATOM     30  C   UNL     1      -1.349  -0.941  -1.078  1.00  0.00     0.056 C 
ATOM     31  C   UNL     1      -1.918  -0.154  -2.272  1.00  0.00     0.023 C 
ATOM     32  C   UNL     1      -1.324  -2.427  -1.494  1.00  0.00     0.023 C 
ATOM     33  O   UNL     1       5.748   0.600   0.373  1.00  0.00    -0.483 OA
ATOM     34  H   UNL     1      -2.221   0.171   3.220  1.00  0.00     0.164 HD
ENDROOT
BRANCH  15  35
ATOM     35  O   UNL     1      -0.124   2.034  -0.945  1.00  0.00    -0.374 OA
ATOM     36  H   UNL     1      -0.992   2.439  -0.741  1.00  0.00     0.212 HD
ENDBRANCH  15  35
TORSDOF 1
