REMARK SMILES CC1=C2CC3OC3(C)CCC3OC3(C)CC2OC1=O
REMARK SMILES IDX 1 1 2 2 3 3 16 4 17 5 18 6 19 7 4 8 5 9 6 10 7 11 8 12 9 13
REMARK SMILES IDX 15 15 13 16 12 17 11 18 14 19 10 20
REMARK H PARENT
REMARK Flexibility Score:   16.900
ROOT
ATOM      1  C   UNL     1       3.676   0.838  -1.396  1.00  0.00     0.052 C 
ATOM      2  C   UNL     1       2.892   0.096  -0.381  1.00  0.00     0.037 C 
ATOM      3  C   UNL     1       1.792   0.408   0.311  1.00  0.00    -0.017 C 
ATOM      4  C   UNL     1       1.418  -0.717   1.242  1.00  0.00     0.206 C 
ATOM      5  O   UNL     1       2.463  -1.684   1.018  1.00  0.00    -0.454 OA
ATOM      6  C   UNL     1       3.320  -1.235   0.066  1.00  0.00     0.334 C 
ATOM      7  O   UNL     1       4.287  -1.842  -0.356  1.00  0.00    -0.247 OA
ENDROOT
BRANCH   3   8
ATOM      8  C   UNL     1       1.008   1.704   0.237  1.00  0.00     0.070 C 
BRANCH   8   9
ATOM      9  C   UNL     1      -0.430   1.380   0.127  1.00  0.00     0.155 C 
ATOM     10  O   UNL     1      -0.821   1.244   1.523  1.00  0.00    -0.366 OA
ATOM     11  C   UNL     1      -1.838   1.674   0.677  1.00  0.00     0.092 C 
ATOM     12  C   UNL     1      -2.275   3.081   0.891  1.00  0.00     0.045 C 
BRANCH  11  13
ATOM     13  C   UNL     1      -2.895   0.579   0.617  1.00  0.00     0.041 CG0
ATOM     14  G   UNL     1      -2.860  -0.294  -0.634  1.00  0.00     0.000 G0
ENDBRANCH  11  13
ENDBRANCH   8   9
ENDBRANCH   3   8
BRANCH   4  15
ATOM     15  C   UNL     1       0.051  -1.475   1.212  1.00  0.00     0.088 C 
BRANCH  15  16
ATOM     16  C   UNL     1      -0.530  -1.894  -0.129  1.00  0.00     0.096 C 
ATOM     17  O   UNL     1      -1.858  -2.431   0.046  1.00  0.00    -0.366 OA
ATOM     18  C   UNL     1      -1.799  -1.342  -0.875  1.00  0.00     0.151 C 
ATOM     19  C   UNL     1       0.347  -2.823  -0.935  1.00  0.00     0.045 C 
BRANCH  18  20
ATOM     20  C   UNL     1      -2.860  -0.294  -0.634  1.00  0.00     0.038 CG0
ATOM     21  G   UNL     1      -2.895   0.579   0.617  1.00  0.00     0.000 G0
ENDBRANCH  18  20
ENDBRANCH  15  16
ENDBRANCH   4  15
TORSDOF 0
