REMARK SMILES C/C=C/C1OC2=C(C(=O)OC2(C)O)C(O)C1O
REMARK SMILES IDX 4 1 5 2 6 3 7 4 8 5 9 6 10 7 11 8 12 9 14 10 16 11 3 12 2 13
REMARK SMILES IDX 1 14 17 15 15 17 13 19
REMARK H PARENT 17 16 15 18 13 20
ROOT
ATOM      1  C   UNL     1       0.460   0.335  -1.280  1.00  0.00     0.227 C 
ATOM      2  O   UNL     1      -0.847  -0.242  -1.016  1.00  0.00    -0.480 OA
ATOM      3  C   UNL     1      -1.350   0.048   0.225  1.00  0.00     0.181 C 
ATOM      4  C   UNL     1      -0.849   0.934   1.075  1.00  0.00     0.113 C 
ATOM      5  C   UNL     1      -1.657   0.849   2.276  1.00  0.00     0.343 C 
ATOM      6  O   UNL     1      -1.489   1.539   3.264  1.00  0.00    -0.246 OA
ATOM      7  O   UNL     1      -2.601  -0.120   2.122  1.00  0.00    -0.422 OA
ATOM      8  C   UNL     1      -2.511  -0.671   0.803  1.00  0.00     0.268 C 
ATOM      9  C   UNL     1      -3.814  -0.412   0.063  1.00  0.00     0.100 C 
ATOM     10  C   UNL     1       0.280   1.835   0.815  1.00  0.00     0.188 C 
ATOM     11  C   UNL     1       0.615   1.772  -0.692  1.00  0.00     0.192 C 
ENDROOT
BRANCH   1  12
ATOM     12  C   UNL     1       1.509  -0.661  -0.828  1.00  0.00     0.015 C 
ATOM     13  C   UNL     1       2.394  -1.252  -1.647  1.00  0.00    -0.031 C 
ATOM     14  C   UNL     1       3.430  -2.228  -1.191  1.00  0.00     0.035 C 
ENDBRANCH   1  12
BRANCH  11  15
ATOM     15  O   UNL     1       1.916   2.315  -0.942  1.00  0.00    -0.386 OA
ATOM     16  H   UNL     1       2.493   1.928  -0.252  1.00  0.00     0.211 HD
ENDBRANCH  11  15
BRANCH  10  17
ATOM     17  O   UNL     1       1.414   1.413   1.577  1.00  0.00    -0.385 OA
ATOM     18  H   UNL     1       1.220   1.630   2.510  1.00  0.00     0.211 HD
ENDBRANCH  10  17
BRANCH   8  19
ATOM     19  O   UNL     1      -2.275  -2.067   0.860  1.00  0.00    -0.350 OA
ATOM     20  H   UNL     1      -1.364  -2.227   0.560  1.00  0.00     0.215 HD
ENDBRANCH   8  19
TORSDOF 4
