REMARK SMILES CCOc1ccc(Nc2nc(N3CCOCC3)nc(N3CCOCC3)n2)cc1
REMARK SMILES IDX 4 1 5 2 6 3 7 4 27 5 28 6 3 7 2 8 1 9 8 10 9 12 10 13 26 14
REMARK SMILES IDX 11 15 19 16 18 17 12 18 13 19 17 20 14 21 16 22 15 23 20 24
REMARK SMILES IDX 21 25 25 26 22 27 24 28 23 29
REMARK H PARENT 8 11
ROOT
ATOM      1  C   UNL     1       5.035  -0.102  -0.560  1.00  0.00     0.119 A 
ATOM      2  C   UNL     1       4.663  -1.051  -1.510  1.00  0.00     0.048 A 
ATOM      3  C   UNL     1       3.323  -1.423  -1.658  1.00  0.00     0.030 A 
ATOM      4  C   UNL     1       2.318  -0.863  -0.856  1.00  0.00     0.041 A 
ATOM      5  C   UNL     1       2.706   0.096   0.084  1.00  0.00     0.030 A 
ATOM      6  C   UNL     1       4.049   0.472   0.238  1.00  0.00     0.048 A 
ENDROOT
BRANCH   1   7
ATOM      7  O   UNL     1       6.373   0.172  -0.515  1.00  0.00    -0.494 OA
BRANCH   7   8
ATOM      8  C   UNL     1       6.806   1.135   0.445  1.00  0.00     0.226 C 
ATOM      9  C   UNL     1       8.312   1.276   0.320  1.00  0.00     0.049 C 
ENDBRANCH   7   8
ENDBRANCH   1   7
BRANCH   4  10
ATOM     10  N   UNL     1       0.993  -1.251  -1.075  1.00  0.00    -0.324 N 
ATOM     11  H   UNL     1       0.851  -2.082  -1.631  1.00  0.00     0.170 HD
BRANCH  10  12
ATOM     12  C   UNL     1      -0.238  -0.816  -0.584  1.00  0.00     0.233 A 
ATOM     13  N   UNL     1      -1.270  -1.576  -0.926  1.00  0.00    -0.176 NA
ATOM     14  N   UNL     1      -0.347   0.287   0.141  1.00  0.00    -0.176 NA
ATOM     15  C   UNL     1      -2.461  -1.197  -0.482  1.00  0.00     0.232 A 
ATOM     16  C   UNL     1      -1.567   0.629   0.531  1.00  0.00     0.232 A 
ATOM     17  N   UNL     1      -2.638  -0.101   0.244  1.00  0.00    -0.176 NA
BRANCH  15  18
ATOM     18  N   UNL     1      -3.565  -1.958  -0.821  1.00  0.00    -0.336 N 
ATOM     19  C   UNL     1      -4.792  -1.825  -0.025  1.00  0.00     0.148 C 
ATOM     20  C   UNL     1      -3.323  -3.273  -1.421  1.00  0.00     0.148 C 
ATOM     21  C   UNL     1      -5.234  -3.202   0.497  1.00  0.00     0.181 C 
ATOM     22  C   UNL     1      -4.665  -3.962  -1.709  1.00  0.00     0.181 C 
ATOM     23  O   UNL     1      -5.469  -4.170  -0.538  1.00  0.00    -0.378 OA
ENDBRANCH  15  18
BRANCH  16  24
ATOM     24  N   UNL     1      -1.728   1.783   1.309  1.00  0.00    -0.336 N 
ATOM     25  C   UNL     1      -0.668   2.786   1.109  1.00  0.00     0.148 C 
ATOM     26  C   UNL     1      -3.089   2.345   1.262  1.00  0.00     0.148 C 
ATOM     27  C   UNL     1      -0.884   3.978   2.053  1.00  0.00     0.181 C 
ATOM     28  C   UNL     1      -3.192   3.557   2.201  1.00  0.00     0.181 C 
ATOM     29  O   UNL     1      -2.195   4.545   1.900  1.00  0.00    -0.378 OA
ENDBRANCH  16  24
ENDBRANCH  10  12
ENDBRANCH   4  10
TORSDOF 6
