REMARK SMILES C=C(C)C(=O)OC1CC2(C)OC(=CC2=O)C(=C)CC2OC(=O)C(=C)C12
REMARK SMILES IDX 7 1 6 2 4 3 5 4 2 5 1 6 3 7 8 8 9 9 11 10 14 11 12 12 13 13
REMARK SMILES IDX 15 14 10 15 16 16 17 17 18 18 25 20 23 21 19 22 21 23 24 24
REMARK SMILES IDX 20 25 22 26
REMARK H PARENT
REMARK Flexibility Score:   44.900
ROOT
ATOM      1  C   UNL     1       0.391  -0.144   0.080  1.00  0.00     0.192 C 
ENDROOT
BRANCH   1   2
ATOM      2  O   UNL     1       1.844  -0.258   0.127  1.00  0.00    -0.458 OA
BRANCH   2   3
ATOM      3  C   UNL     1       2.492  -0.278  -1.067  1.00  0.00     0.333 C 
ATOM      4  O   UNL     1       1.952  -0.187  -2.159  1.00  0.00    -0.247 OA
BRANCH   3   5
ATOM      5  C   UNL     1       3.959  -0.419  -0.854  1.00  0.00     0.027 C 
ATOM      6  C   UNL     1       4.752  -0.429  -1.939  1.00  0.00     0.020 C 
ATOM      7  C   UNL     1       4.492  -0.546   0.538  1.00  0.00     0.051 C 
ENDBRANCH   3   5
ENDBRANCH   2   3
ENDBRANCH   1   2
BRANCH   1   8
ATOM      8  C   UNL     1      -0.125  -0.885   1.339  1.00  0.00     0.103 C 
BRANCH   8   9
ATOM      9  C   UNL     1      -1.468  -1.626   1.185  1.00  0.00     0.172 C 
ATOM     10  O   UNL     1      -2.451  -0.698   0.715  1.00  0.00    -0.479 OA
ATOM     11  C   UNL     1      -1.472  -2.667   0.084  1.00  0.00     0.202 C 
ATOM     12  C   UNL     1      -2.612  -0.983  -0.631  1.00  0.00     0.127 C 
ATOM     13  C   UNL     1      -2.193  -2.163  -1.082  1.00  0.00     0.098 C 
ATOM     14  O   UNL     1      -0.907  -3.749   0.104  1.00  0.00    -0.290 OA
ATOM     15  C   UNL     1      -1.945  -2.228   2.500  1.00  0.00     0.066 C 
BRANCH  12  16
ATOM     16  C   UNL     1      -3.089   0.126  -1.415  1.00  0.00    -0.009 C 
ATOM     17  C   UNL     1      -4.290   0.093  -2.013  1.00  0.00     0.016 C 
BRANCH  16  18
ATOM     18  C   UNL     1      -2.150   1.322  -1.532  1.00  0.00     0.085 CG0
ATOM     19  G   UNL     1      -1.441   1.768  -0.231  1.00  0.00     0.000 G0
ENDBRANCH  16  18
ENDBRANCH  12  16
ENDBRANCH   8   9
ENDBRANCH   1   8
BRANCH   1  20
ATOM     20  C   UNL     1       0.027   1.353  -0.109  1.00  0.00     0.108 C 
ATOM     21  C   UNL     1       0.445   2.364   0.915  1.00  0.00     0.041 C 
ATOM     22  C   UNL     1      -1.441   1.768  -0.231  1.00  0.00     0.192 CG0
ATOM     23  C   UNL     1      -0.383   3.576   0.669  1.00  0.00     0.334 C 
ATOM     24  C   UNL     1       1.345   2.319   1.904  1.00  0.00     0.021 C 
ATOM     25  O   UNL     1      -1.383   3.212  -0.185  1.00  0.00    -0.458 OA
ATOM     26  O   UNL     1      -0.197   4.689   1.121  1.00  0.00    -0.247 OA
ATOM     27  G   UNL     1      -2.150   1.322  -1.532  1.00  0.00     0.000 G0
ENDBRANCH   1  20
TORSDOF 3
