REMARK SMILES Cn1c2c(c(=O)n(C)c1=O)CN(CCN1CCNCC1)CN2
REMARK SMILES IDX 13 1 12 2 2 3 3 4 9 5 4 6 22 7 7 8 10 9 5 10 11 11 21 12
REMARK SMILES IDX 6 13 1 14 8 16 14 17 15 18 16 19 20 20 17 21 19 22 18 23
REMARK H PARENT 22 15 18 24
ROOT
ATOM      1  C   UNL     1      -1.361  -0.087   0.996  1.00  0.00     0.102 C 
ENDROOT
BRANCH   1   2
ATOM      2  N   UNL     1       0.071   0.166   1.177  1.00  0.00    -0.280 NA
ATOM      3  N   UNL     1       4.184   1.185   0.897  1.00  0.00    -0.283 N 
ATOM      4  C   UNL     1       2.829   0.902   0.869  1.00  0.00     0.120 C 
ATOM      5  C   UNL     1       5.161   0.269   0.509  1.00  0.00     0.332 C 
ATOM      6  C   UNL     1       2.407  -0.300   0.436  1.00  0.00     0.072 C 
ATOM      7  N   UNL     1       1.871   1.826   1.257  1.00  0.00    -0.358 N 
ATOM      8  N   UNL     1       4.708  -0.981   0.114  1.00  0.00    -0.263 N 
ATOM      9  O   UNL     1       6.362   0.550   0.500  1.00  0.00    -0.247 OA
ATOM     10  C   UNL     1       3.378  -1.299  -0.044  1.00  0.00     0.262 C 
ATOM     11  C   UNL     1       0.950  -0.685   0.365  1.00  0.00     0.131 C 
ATOM     12  C   UNL     1       0.462   1.558   1.041  1.00  0.00     0.203 C 
ATOM     13  O   UNL     1       2.975  -2.337  -0.569  1.00  0.00    -0.269 OA
ATOM     14  C   UNL     1       4.635   2.482   1.388  1.00  0.00     0.157 C 
ATOM     15  H   UNL     1       2.141   2.796   1.163  1.00  0.00     0.163 HD
ATOM     16  C   UNL     1       5.699  -1.948  -0.315  1.00  0.00     0.158 C 
ENDBRANCH   1   2
BRANCH   1  17
ATOM     17  C   UNL     1      -1.958   0.129  -0.420  1.00  0.00     0.100 C 
BRANCH  17  18
ATOM     18  N   UNL     1      -3.428   0.023  -0.458  1.00  0.00    -0.300 NA
ATOM     19  C   UNL     1      -3.907  -1.332  -0.099  1.00  0.00     0.100 C 
ATOM     20  C   UNL     1      -3.950   0.396  -1.788  1.00  0.00     0.100 C 
ATOM     21  C   UNL     1      -5.372  -1.615  -0.524  1.00  0.00     0.096 C 
ATOM     22  C   UNL     1      -5.500   0.381  -1.841  1.00  0.00     0.096 C 
ATOM     23  N   UNL     1      -6.145  -0.384  -0.756  1.00  0.00    -0.314 NA
ATOM     24  H   UNL     1      -6.035   0.181   0.090  1.00  0.00     0.122 HD
ENDBRANCH  17  18
ENDBRANCH   1  17
TORSDOF 3
