REMARK SMILES C=C1C(=O)OC2CC3(C)OC3CCC3(C)OC3CC12
REMARK SMILES IDX 1 1 2 2 3 3 4 4 5 5 6 6 19 7 18 8 17 9 16 10 14 11 15 12
REMARK SMILES IDX 13 13 7 15 8 16 10 17 11 18 9 19 12 20
REMARK H PARENT
REMARK Flexibility Score:   16.900
ROOT
ATOM      1  C   UNL     1      -2.403  -2.989   0.148  1.00  0.00     0.021 C 
ATOM      2  C   UNL     1      -2.497  -1.653   0.173  1.00  0.00     0.037 C 
ATOM      3  C   UNL     1      -3.811  -0.973   0.228  1.00  0.00     0.334 C 
ATOM      4  O   UNL     1      -4.893  -1.501   0.401  1.00  0.00    -0.247 OA
ATOM      5  O   UNL     1      -3.595   0.358   0.062  1.00  0.00    -0.458 OA
ATOM      6  C   UNL     1      -2.237   0.593  -0.343  1.00  0.00     0.187 C 
ATOM      7  C   UNL     1      -1.426  -0.611   0.154  1.00  0.00     0.070 C 
ENDROOT
BRANCH   7   8
ATOM      8  C   UNL     1      -0.209  -0.914  -0.744  1.00  0.00     0.047 C 
BRANCH   8   9
ATOM      9  C   UNL     1       0.888  -1.682  -0.075  1.00  0.00     0.151 C 
ATOM     10  O   UNL     1       1.102  -1.401   1.305  1.00  0.00    -0.366 OA
ATOM     11  C   UNL     1       2.247  -1.152   0.466  1.00  0.00     0.092 C 
ATOM     12  C   UNL     1       3.326  -2.194   0.655  1.00  0.00     0.045 C 
BRANCH  11  13
ATOM     13  C   UNL     1       2.763   0.269   0.673  1.00  0.00     0.041 CG0
ATOM     14  G   UNL     1       2.051   1.445   0.015  1.00  0.00     0.000 G0
ENDBRANCH  11  13
ENDBRANCH   8   9
ENDBRANCH   7   8
BRANCH   6  15
ATOM     15  C   UNL     1      -1.794   1.944   0.249  1.00  0.00     0.084 C 
BRANCH  15  16
ATOM     16  C   UNL     1      -0.408   2.331  -0.182  1.00  0.00     0.096 C 
ATOM     17  O   UNL     1       0.346   3.134   0.735  1.00  0.00    -0.366 OA
ATOM     18  C   UNL     1       0.735   1.757   0.649  1.00  0.00     0.151 C 
ATOM     19  C   UNL     1      -0.242   2.811  -1.595  1.00  0.00     0.045 C 
BRANCH  18  20
ATOM     20  C   UNL     1       2.051   1.445   0.015  1.00  0.00     0.038 CG0
ATOM     21  G   UNL     1       2.763   0.269   0.673  1.00  0.00     0.000 G0
ENDBRANCH  18  20
ENDBRANCH  15  16
ENDBRANCH   6  15
TORSDOF 0
