REMARK SMILES c1cc(C2CCCCC2)ccc1Oc1nc(N2CCOCC2)nc(N2CCOCC2)n1
REMARK SMILES IDX 13 1 12 2 1 3 2 4 3 5 11 6 10 7 4 8 5 9 9 10 6 11 8 12 7 13
REMARK SMILES IDX 14 14 15 15 31 16 16 17 24 18 23 19 17 20 18 21 22 22 19 23
REMARK SMILES IDX 21 24 20 25 25 26 26 27 30 28 27 29 29 30 28 31
REMARK H PARENT
ROOT
ATOM      1  O   UNL     1       0.132   2.202   0.759  1.00  0.00    -0.424 OA
ENDROOT
BRANCH   1   2
ATOM      2  C   UNL     1       1.207   1.350   0.763  1.00  0.00     0.131 A 
ATOM      3  C   UNL     1       2.113   1.404  -0.292  1.00  0.00     0.047 A 
ATOM      4  C   UNL     1       3.231   0.567  -0.288  1.00  0.00     0.008 A 
ATOM      5  C   UNL     1       3.460  -0.320   0.777  1.00  0.00    -0.045 A 
ATOM      6  C   UNL     1       1.429   0.498   1.844  1.00  0.00     0.047 A 
ATOM      7  C   UNL     1       2.548  -0.338   1.846  1.00  0.00     0.008 A 
BRANCH   5   8
ATOM      8  C   UNL     1       4.671  -1.239   0.805  1.00  0.00     0.019 C 
ATOM      9  C   UNL     1       4.748  -2.175  -0.422  1.00  0.00     0.008 C 
ATOM     10  C   UNL     1       5.967  -0.437   1.029  1.00  0.00     0.008 C 
ATOM     11  C   UNL     1       5.859  -1.793  -1.396  1.00  0.00     0.001 C 
ATOM     12  C   UNL     1       7.194  -1.290   0.732  1.00  0.00     0.001 C 
ATOM     13  C   UNL     1       7.232  -1.759  -0.723  1.00  0.00     0.000 C 
ENDBRANCH   5   8
ENDBRANCH   1   2
BRANCH   1  14
ATOM     14  C   UNL     1      -1.100   1.635   0.442  1.00  0.00     0.328 A 
ATOM     15  N   UNL     1      -1.147   0.413  -0.073  1.00  0.00    -0.158 NA
ATOM     16  N   UNL     1      -2.142   2.421   0.670  1.00  0.00    -0.158 NA
ATOM     17  C   UNL     1      -2.357  -0.044  -0.347  1.00  0.00     0.233 A 
ATOM     18  C   UNL     1      -3.319   1.905   0.354  1.00  0.00     0.233 A 
ATOM     19  N   UNL     1      -3.455   0.678  -0.146  1.00  0.00    -0.176 NA
BRANCH  17  20
ATOM     20  N   UNL     1      -2.474  -1.309  -0.894  1.00  0.00    -0.336 N 
ATOM     21  C   UNL     1      -1.273  -2.153  -0.874  1.00  0.00     0.148 C 
ATOM     22  C   UNL     1      -3.759  -2.009  -0.799  1.00  0.00     0.148 C 
ATOM     23  C   UNL     1      -1.601  -3.527  -1.477  1.00  0.00     0.181 C 
ATOM     24  C   UNL     1      -3.569  -3.369  -0.108  1.00  0.00     0.181 C 
ATOM     25  O   UNL     1      -2.635  -4.234  -0.773  1.00  0.00    -0.378 OA
ENDBRANCH  17  20
BRANCH  18  26
ATOM     26  N   UNL     1      -4.460   2.652   0.586  1.00  0.00    -0.336 N 
ATOM     27  C   UNL     1      -4.340   4.105   0.757  1.00  0.00     0.148 C 
ATOM     28  C   UNL     1      -5.704   2.175  -0.028  1.00  0.00     0.148 C 
ATOM     29  C   UNL     1      -5.223   4.832  -0.271  1.00  0.00     0.181 C 
ATOM     30  C   UNL     1      -6.845   3.152   0.293  1.00  0.00     0.181 C 
ATOM     31  O   UNL     1      -6.614   4.484  -0.192  1.00  0.00    -0.378 OA
ENDBRANCH  18  26
ENDBRANCH   1  14
TORSDOF 5
