REMARK SMILES C=C(C)C(=O)OC1CC(C)=C2C(=O)C=C(C)C2C2OC(=O)C(C)(OC(=O)C(=C)C)C12
REMARK SMILES IDX 18 1 19 2 20 3 21 4 22 5 23 6 30 7 7 8 6 9 4 10 5 11 2 12
REMARK SMILES IDX 1 13 3 14 8 15 24 17 25 18 26 19 27 20 28 21 29 22 17 23
REMARK SMILES IDX 15 24 11 25 14 26 9 27 12 28 13 29 16 30 10 31
REMARK H PARENT
REMARK Flexibility Score:   24.900
ROOT
ATOM      1  C   UNL     1      -0.134  -1.971  -0.453  1.00  0.00     0.199 C 
ATOM      2  O   UNL     1       0.929  -2.693  -1.087  1.00  0.00    -0.458 OA
ATOM      3  C   UNL     1       2.015  -1.872  -1.212  1.00  0.00     0.351 C 
ATOM      4  O   UNL     1       3.144  -2.266  -1.457  1.00  0.00    -0.247 OA
ATOM      5  C   UNL     1       1.573  -0.410  -1.090  1.00  0.00     0.216 C 
ATOM      6  C   UNL     1       1.965   0.275  -2.411  1.00  0.00     0.070 C 
ATOM      7  C   UNL     1       0.040  -0.553  -0.992  1.00  0.00     0.128 C 
ENDROOT
BRANCH   7   8
ATOM      8  C   UNL     1      -0.710   0.522  -0.202  1.00  0.00     0.192 C 
BRANCH   8   9
ATOM      9  O   UNL     1      -0.326   1.806  -0.746  1.00  0.00    -0.458 OA
BRANCH   9  10
ATOM     10  C   UNL     1      -0.326   2.848   0.126  1.00  0.00     0.333 C 
ATOM     11  O   UNL     1      -0.605   2.776   1.313  1.00  0.00    -0.247 OA
BRANCH  10  12
ATOM     12  C   UNL     1       0.076   4.120  -0.540  1.00  0.00     0.027 C 
ATOM     13  C   UNL     1       0.257   4.220  -1.868  1.00  0.00     0.020 C 
ATOM     14  C   UNL     1       0.252   5.289   0.383  1.00  0.00     0.051 C 
ENDBRANCH  10  12
ENDBRANCH   9  10
ENDBRANCH   8   9
BRANCH   8  15
ATOM     15  C   UNL     1      -2.235   0.395  -0.376  1.00  0.00     0.077 CG0
ATOM     16  G   UNL     1      -2.887  -0.730   0.398  1.00  0.00     0.000 G0
ENDBRANCH   8  15
ENDBRANCH   7   8
BRANCH   5  17
ATOM     17  O   UNL     1       2.171   0.397  -0.070  1.00  0.00    -0.443 OA
BRANCH  17  18
ATOM     18  C   UNL     1       2.398  -0.132   1.153  1.00  0.00     0.334 C 
ATOM     19  O   UNL     1       2.062  -1.248   1.511  1.00  0.00    -0.247 OA
BRANCH  18  20
ATOM     20  C   UNL     1       3.096   0.859   2.018  1.00  0.00     0.027 C 
ATOM     21  C   UNL     1       3.337   0.516   3.295  1.00  0.00     0.020 C 
ATOM     22  C   UNL     1       3.505   2.179   1.445  1.00  0.00     0.051 C 
ENDBRANCH  18  20
ENDBRANCH  17  18
ENDBRANCH   5  17
BRANCH   1  23
ATOM     23  C   UNL     1      -1.520  -2.582  -0.763  1.00  0.00     0.090 C 
ATOM     24  C   UNL     1      -1.613  -4.079  -0.543  1.00  0.00    -0.058 C 
ATOM     25  C   UNL     1      -2.578  -2.023   0.173  1.00  0.00     0.009 C 
ATOM     26  C   UNL     1      -2.545  -4.428   0.352  1.00  0.00     0.052 C 
ATOM     27  C   UNL     1      -2.887  -0.730   0.398  1.00  0.00    -0.062 CG0
ATOM     28  C   UNL     1      -3.201  -3.211   0.842  1.00  0.00     0.182 C 
ATOM     29  O   UNL     1      -4.116  -3.226   1.641  1.00  0.00    -0.290 OA
ATOM     30  C   UNL     1      -0.799  -5.055  -1.323  1.00  0.00     0.040 C 
ATOM     31  C   UNL     1      -3.904  -0.243   1.402  1.00  0.00     0.040 C 
ATOM     32  G   UNL     1      -2.235   0.395  -0.376  1.00  0.00     0.000 G0
ENDBRANCH   1  23
TORSDOF 6
