REMARK SMILES CCN1CCN(c2cc(C)c3cc(NC(=O)c4cccc(C(F)(F)F)c4)ccc3n2)CC1
REMARK SMILES IDX 7 1 8 2 9 3 10 4 11 5 12 6 13 7 27 8 28 9 29 10 30 11 6 12
REMARK SMILES IDX 3 13 4 14 32 15 5 16 31 17 2 18 1 19 14 20 15 21 16 22 17 24
REMARK SMILES IDX 18 25 26 26 19 27 21 28 20 29 22 30 23 31 24 32 25 33
REMARK H PARENT 14 23
ROOT
ATOM      1  C   UNL     1       2.633  -0.700   0.032  1.00  0.00     0.129 A 
ATOM      2  C   UNL     1       2.234  -1.221   1.261  1.00  0.00     0.051 A 
ATOM      3  C   UNL     1       0.883  -1.227   1.626  1.00  0.00    -0.038 A 
ATOM      4  C   UNL     1       0.490  -1.798   2.960  1.00  0.00     0.045 C 
ATOM      5  C   UNL     1      -0.065  -0.700   0.723  1.00  0.00     0.005 A 
ATOM      6  C   UNL     1      -1.459  -0.651   0.981  1.00  0.00     0.036 A 
ATOM      7  C   UNL     1      -2.356  -0.119   0.053  1.00  0.00     0.042 A 
ATOM      8  C   UNL     1      -1.853   0.363  -1.154  1.00  0.00     0.028 A 
ATOM      9  C   UNL     1      -0.479   0.316  -1.415  1.00  0.00     0.031 A 
ATOM     10  C   UNL     1       0.424  -0.204  -0.502  1.00  0.00     0.073 A 
ATOM     11  N   UNL     1       1.725  -0.209  -0.834  1.00  0.00    -0.231 NA
ENDROOT
BRANCH   1  12
ATOM     12  N   UNL     1       4.003  -0.702  -0.304  1.00  0.00    -0.354 N 
ATOM     13  N   UNL     1       5.887   1.491  -1.195  1.00  0.00    -0.300 NA
ATOM     14  C   UNL     1       4.675   1.063  -1.942  1.00  0.00     0.106 C 
ATOM     15  C   UNL     1       6.102   0.630  -0.007  1.00  0.00     0.106 C 
ATOM     16  C   UNL     1       4.283  -0.415  -1.728  1.00  0.00     0.133 C 
ATOM     17  C   UNL     1       4.791   0.127   0.641  1.00  0.00     0.133 C 
BRANCH  13  18
ATOM     18  C   UNL     1       7.068   1.531  -2.069  1.00  0.00     0.081 C 
ATOM     19  C   UNL     1       8.294   2.129  -1.387  1.00  0.00     0.021 C 
ENDBRANCH  13  18
ENDBRANCH   1  12
BRANCH   7  20
ATOM     20  N   UNL     1      -3.751  -0.046   0.247  1.00  0.00    -0.322 N 
ATOM     21  C   UNL     1      -4.458  -0.387   1.387  1.00  0.00     0.255 C 
ATOM     22  O   UNL     1      -3.994  -0.749   2.461  1.00  0.00    -0.269 OA
ATOM     23  H   UNL     1      -4.275   0.368  -0.513  1.00  0.00     0.170 HD
BRANCH  21  24
ATOM     24  C   UNL     1      -5.937  -0.248   1.271  1.00  0.00     0.040 A 
ATOM     25  C   UNL     1      -6.657   0.182   2.392  1.00  0.00     0.014 A 
ATOM     26  C   UNL     1      -6.619  -0.570   0.089  1.00  0.00     0.027 A 
ATOM     27  C   UNL     1      -8.043   0.318   2.325  1.00  0.00     0.001 A 
ATOM     28  C   UNL     1      -8.016  -0.429   0.011  1.00  0.00     0.056 A 
ATOM     29  C   UNL     1      -8.719   0.015   1.142  1.00  0.00     0.013 A 
BRANCH  28  30
ATOM     30  C   UNL     1      -8.750  -0.796  -1.256  1.00  0.00     0.416 C 
ATOM     31  F   UNL     1      -8.020  -0.537  -2.377  1.00  0.00    -0.166 F 
ATOM     32  F   UNL     1      -9.064  -2.118  -1.309  1.00  0.00    -0.166 F 
ATOM     33  F   UNL     1      -9.922  -0.121  -1.412  1.00  0.00    -0.166 F 
ENDBRANCH  28  30
ENDBRANCH  21  24
ENDBRANCH   7  20
TORSDOF 5
