REMARK SMILES Cc1nn(Cc2ccc(Cl)cc2)c(C)c1NC(=O)CCCn1nc([N+](=O)[O-])c(Cl)c1C
REMARK SMILES IDX 19 1 17 2 16 3 18 4 15 6 2 7 3 8 4 9 13 10 1 11 14 12 5 13
REMARK SMILES IDX 6 14 7 15 12 16 8 17 11 18 9 19 10 20 20 21 21 22 22 23
REMARK SMILES IDX 23 24 30 25 24 26 28 27 31 28 29 29 25 30 26 31 27 32
REMARK H PARENT 16 5
ROOT
ATOM      1  C   UNL     1       2.530  -2.323   1.717  1.00  0.00     0.102 C 
ENDROOT
BRANCH   1   2
ATOM      2  C   UNL     1       1.102  -2.679   1.348  1.00  0.00     0.224 C 
ATOM      3  N   UNL     1       0.252  -1.596   1.379  1.00  0.00    -0.323 N 
ATOM      4  O   UNL     1       0.833  -3.827   1.013  1.00  0.00    -0.275 OA
ATOM      5  H   UNL     1       0.652  -0.695   1.633  1.00  0.00     0.170 HD
BRANCH   3   6
ATOM      6  C   UNL     1      -1.088  -1.570   1.016  1.00  0.00     0.085 A 
ATOM      7  C   UNL     1      -2.002  -2.549   0.530  1.00  0.00     0.083 A 
ATOM      8  N   UNL     1      -3.206  -2.013   0.281  1.00  0.00    -0.175 NA
ATOM      9  N   UNL     1      -3.075  -0.715   0.601  1.00  0.00    -0.263 N 
ATOM     10  C   UNL     1      -1.831  -0.401   1.087  1.00  0.00     0.060 A 
ATOM     11  C   UNL     1      -1.827  -3.998   0.264  1.00  0.00     0.071 C 
ATOM     12  C   UNL     1      -1.453   0.959   1.553  1.00  0.00     0.069 C 
BRANCH   9  13
ATOM     13  C   UNL     1      -4.226   0.165   0.416  1.00  0.00     0.180 C 
BRANCH  13  14
ATOM     14  C   UNL     1      -4.051   1.093  -0.765  1.00  0.00    -0.026 A 
ATOM     15  C   UNL     1      -4.090   2.485  -0.591  1.00  0.00     0.007 A 
ATOM     16  C   UNL     1      -3.871   0.576  -2.059  1.00  0.00     0.007 A 
ATOM     17  C   UNL     1      -3.934   3.340  -1.684  1.00  0.00     0.021 A 
ATOM     18  C   UNL     1      -3.715   1.432  -3.151  1.00  0.00     0.021 A 
ATOM     19  C   UNL     1      -3.745   2.810  -2.959  1.00  0.00     0.041 A 
ATOM     20  Cl  UNL     1      -3.550   3.866  -4.303  1.00  0.00    -0.084 Cl
ENDBRANCH  13  14
ENDBRANCH   9  13
ENDBRANCH   3   6
ENDBRANCH   1   2
BRANCH   1  21
ATOM     21  C   UNL     1       3.404  -2.180   0.469  1.00  0.00     0.036 C 
BRANCH  21  22
ATOM     22  C   UNL     1       2.989  -1.057  -0.484  1.00  0.00     0.171 C 
BRANCH  22  23
ATOM     23  N   UNL     1       3.204   0.271   0.070  1.00  0.00    -0.176 N 
ATOM     24  N   UNL     1       2.277   0.783   0.912  1.00  0.00     0.061 NA
ATOM     25  C   UNL     1       4.273   1.108  -0.147  1.00  0.00     0.084 A 
ATOM     26  C   UNL     1       2.779   1.996   1.223  1.00  0.00     0.408 A 
ATOM     27  C   UNL     1       4.011   2.248   0.590  1.00  0.00     0.163 A 
ATOM     28  C   UNL     1       5.425   0.756  -1.018  1.00  0.00     0.070 C 
ATOM     29  Cl  UNL     1       4.989   3.629   0.724  1.00  0.00    -0.073 Cl
BRANCH  26  30
ATOM     30  N   UNL     1       2.022   2.836   2.121  1.00  0.00    -0.020 N 
ATOM     31  O   UNL     1       1.356   2.276   3.005  1.00  0.00    -0.358 OA
ATOM     32  O   UNL     1       2.093   4.060   1.946  1.00  0.00    -0.358 OA
ENDBRANCH  26  30
ENDBRANCH  22  23
ENDBRANCH  21  22
ENDBRANCH   1  21
TORSDOF 8
