REMARK SMILES Cc1ccc(-n2nc(-c3ccc(F)cc3)c3cnc4cc5c(cc4c32)OCO5)cc1C
REMARK SMILES IDX 6 1 7 2 8 3 16 4 17 5 18 6 19 7 20 8 21 9 22 10 23 11 24 12
REMARK SMILES IDX 25 13 26 14 27 15 28 16 5 17 2 18 3 19 30 20 4 21 29 22 1 23
REMARK SMILES IDX 31 24 9 25 10 26 15 27 11 28 14 29 12 30 13 31
REMARK H PARENT
ROOT
ATOM      1  N   UNL     1       0.281  -0.705  -0.280  1.00  0.00    -0.232 N 
ATOM      2  N   UNL     1       1.280  -1.607  -0.464  1.00  0.00    -0.167 NA
ATOM      3  C   UNL     1       2.405  -0.939  -0.186  1.00  0.00     0.102 A 
ATOM      4  C   UNL     1       2.137   0.446  -0.004  1.00  0.00     0.047 A 
ATOM      5  C   UNL     1       2.903   1.573   0.297  1.00  0.00     0.124 A 
ATOM      6  N   UNL     1       2.351   2.808   0.293  1.00  0.00    -0.255 NA
ATOM      7  C   UNL     1       1.073   2.977  -0.067  1.00  0.00     0.076 A 
ATOM      8  C   UNL     1       0.586   4.274  -0.149  1.00  0.00     0.079 A 
ATOM      9  C   UNL     1      -0.710   4.486  -0.571  1.00  0.00     0.167 A 
ATOM     10  C   UNL     1      -1.534   3.449  -0.923  1.00  0.00     0.166 A 
ATOM     11  C   UNL     1      -1.113   2.141  -0.855  1.00  0.00     0.063 A 
ATOM     12  C   UNL     1       0.200   1.896  -0.386  1.00  0.00     0.031 A 
ATOM     13  C   UNL     1       0.769   0.598  -0.242  1.00  0.00     0.086 A 
ATOM     14  O   UNL     1      -2.758   3.872  -1.335  1.00  0.00    -0.454 OA
ATOM     15  C   UNL     1      -2.611   5.301  -1.200  1.00  0.00     0.468 C 
ATOM     16  O   UNL     1      -1.312   5.697  -0.712  1.00  0.00    -0.454 OA
ENDROOT
BRANCH   1  17
ATOM     17  C   UNL     1      -1.036  -1.196  -0.049  1.00  0.00     0.066 A 
ATOM     18  C   UNL     1      -3.611  -2.236   0.434  1.00  0.00    -0.048 A 
ATOM     19  C   UNL     1      -2.677  -2.957  -0.324  1.00  0.00     0.006 A 
ATOM     20  C   UNL     1      -3.241  -0.991   0.979  1.00  0.00    -0.046 A 
ATOM     21  C   UNL     1      -1.397  -2.450  -0.555  1.00  0.00     0.028 A 
ATOM     22  C   UNL     1      -1.949  -0.488   0.743  1.00  0.00     0.032 A 
ATOM     23  C   UNL     1      -4.979  -2.818   0.662  1.00  0.00     0.044 C 
ATOM     24  C   UNL     1      -4.195  -0.194   1.829  1.00  0.00     0.044 C 
ENDBRANCH   1  17
BRANCH   3  25
ATOM     25  C   UNL     1       3.688  -1.638  -0.137  1.00  0.00     0.003 A 
ATOM     26  C   UNL     1       3.780  -2.884   0.505  1.00  0.00     0.013 A 
ATOM     27  C   UNL     1       4.835  -1.092  -0.735  1.00  0.00     0.013 A 
ATOM     28  C   UNL     1       4.999  -3.563   0.564  1.00  0.00     0.040 A 
ATOM     29  C   UNL     1       6.053  -1.774  -0.675  1.00  0.00     0.040 A 
ATOM     30  C   UNL     1       6.124  -3.000  -0.024  1.00  0.00     0.123 A 
ATOM     31  F   UNL     1       7.294  -3.650   0.031  1.00  0.00    -0.207 F 
ENDBRANCH   3  25
TORSDOF 2
