REMARK SMILES CCc1ccc(NC(=O)C2CCN(c3cc(C)nc4c(-c5ccc(Cl)cc5)c(C)nn34)CC2)cc1
REMARK SMILES IDX 10 1 11 2 12 3 13 4 32 5 33 6 8 7 7 8 9 9 6 11 3 12 4 13
REMARK SMILES IDX 35 14 5 15 34 16 2 17 1 18 14 19 15 20 31 21 16 22 30 23
REMARK SMILES IDX 19 24 18 25 28 26 20 27 17 28 29 29 21 30 22 31 27 32 23 33
REMARK SMILES IDX 26 34 24 35 25 36
REMARK H PARENT 7 10
ROOT
ATOM      1  C   UNL     1       2.041  -1.568  -0.967  1.00  0.00     0.082 C 
ATOM      2  C   UNL     1       1.079  -2.643  -0.448  1.00  0.00     0.035 C 
ATOM      3  C   UNL     1      -0.235  -2.625  -1.218  1.00  0.00     0.119 C 
ATOM      4  N   UNL     1      -0.929  -1.332  -1.070  1.00  0.00    -0.356 N 
ATOM      5  C   UNL     1      -0.079  -0.183  -0.706  1.00  0.00     0.119 C 
ATOM      6  C   UNL     1       1.290  -0.291  -1.377  1.00  0.00     0.035 C 
ENDROOT
BRANCH   1   7
ATOM      7  C   UNL     1       3.147  -1.265   0.049  1.00  0.00     0.227 C 
ATOM      8  N   UNL     1       4.157  -0.486  -0.495  1.00  0.00    -0.326 N 
ATOM      9  O   UNL     1       3.109  -1.698   1.195  1.00  0.00    -0.274 OA
ATOM     10  H   UNL     1       4.066  -0.237  -1.471  1.00  0.00     0.169 HD
BRANCH   8  11
ATOM     11  C   UNL     1       5.318  -0.006   0.148  1.00  0.00     0.041 A 
ATOM     12  C   UNL     1       7.684   1.040   1.281  1.00  0.00    -0.048 A 
ATOM     13  C   UNL     1       7.381   1.268  -0.065  1.00  0.00     0.006 A 
ATOM     14  C   UNL     1       6.798   0.279   2.050  1.00  0.00     0.006 A 
ATOM     15  C   UNL     1       6.207   0.752  -0.624  1.00  0.00     0.026 A 
ATOM     16  C   UNL     1       5.623  -0.238   1.489  1.00  0.00     0.026 A 
BRANCH  12  17
ATOM     17  C   UNL     1       8.955   1.579   1.885  1.00  0.00     0.032 C 
ATOM     18  C   UNL     1      10.108   0.597   1.745  1.00  0.00     0.009 C 
ENDBRANCH  12  17
ENDBRANCH   8  11
ENDBRANCH   1   7
BRANCH   4  19
ATOM     19  C   UNL     1      -2.348  -1.242  -1.110  1.00  0.00     0.134 C 
ATOM     20  C   UNL     1      -3.093  -2.106  -1.831  1.00  0.00     0.070 C 
ATOM     21  N   UNL     1      -3.055  -0.229  -0.380  1.00  0.00    -0.198 N 
ATOM     22  C   UNL     1      -4.573  -1.933  -1.827  1.00  0.00     0.043 C 
ATOM     23  N   UNL     1      -2.548   0.737   0.445  1.00  0.00    -0.169 NA
ATOM     24  C   UNL     1      -4.459  -0.148  -0.431  1.00  0.00     0.165 A 
ATOM     25  N   UNL     1      -5.215  -1.014  -1.174  1.00  0.00    -0.233 NA
ATOM     26  C   UNL     1      -3.605   1.417   0.893  1.00  0.00     0.070 A 
ATOM     27  C   UNL     1      -4.822   0.921   0.369  1.00  0.00     0.050 A 
ATOM     28  C   UNL     1      -5.383  -2.902  -2.653  1.00  0.00     0.067 C 
ATOM     29  C   UNL     1      -3.400   2.539   1.845  1.00  0.00     0.069 C 
BRANCH  27  30
ATOM     30  C   UNL     1      -6.189   1.365   0.577  1.00  0.00    -0.013 A 
ATOM     31  C   UNL     1      -6.521   2.719   0.430  1.00  0.00     0.010 A 
ATOM     32  C   UNL     1      -7.192   0.454   0.937  1.00  0.00     0.010 A 
ATOM     33  C   UNL     1      -7.832   3.155   0.642  1.00  0.00     0.021 A 
ATOM     34  C   UNL     1      -8.503   0.888   1.149  1.00  0.00     0.021 A 
ATOM     35  C   UNL     1      -8.817   2.237   1.002  1.00  0.00     0.041 A 
ATOM     36  Cl  UNL     1     -10.431   2.774   1.262  1.00  0.00    -0.084 Cl
ENDBRANCH  27  30
ENDBRANCH   4  19
TORSDOF 5
