REMARK SMILES Cc1nc2c(-c3ccc(F)cc3)c(C)nn2c(C)c1CCC(=O)Nc1ccc(F)cc1F
REMARK SMILES IDX 20 1 19 2 2 3 3 4 4 5 17 6 5 7 16 8 13 9 15 10 1 11 18 12
REMARK SMILES IDX 14 13 6 14 7 15 12 16 8 17 11 18 9 19 10 20 21 21 22 22
REMARK SMILES IDX 23 23 24 24 25 26 26 27 31 28 27 29 30 30 28 31 32 32 29 33
REMARK H PARENT 24 25
ROOT
ATOM      1  C   UNL     1       1.542   0.512   1.184  1.00  0.00     0.049 C 
ENDROOT
BRANCH   1   2
ATOM      2  C   UNL     1       0.051   0.512   0.963  1.00  0.00    -0.005 C 
ATOM      3  C   UNL     1      -0.751  -0.742   1.258  1.00  0.00     0.045 C 
ATOM      4  N   UNL     1      -2.039  -0.856   1.118  1.00  0.00    -0.233 NA
ATOM      5  C   UNL     1      -2.721   0.243   0.681  1.00  0.00     0.163 A 
ATOM      6  C   UNL     1      -0.678   1.572   0.538  1.00  0.00     0.046 C 
ATOM      7  C   UNL     1      -4.067   0.462   0.446  1.00  0.00     0.049 A 
ATOM      8  N   UNL     1      -2.071   1.443   0.393  1.00  0.00    -0.219 N 
ATOM      9  C   UNL     1      -4.144   1.806   0.002  1.00  0.00     0.070 A 
ATOM     10  N   UNL     1      -2.945   2.396  -0.026  1.00  0.00    -0.171 NA
ATOM     11  C   UNL     1      -0.025  -1.970   1.764  1.00  0.00     0.067 C 
ATOM     12  C   UNL     1      -0.108   2.920   0.182  1.00  0.00     0.067 C 
ATOM     13  C   UNL     1      -5.344   2.571  -0.421  1.00  0.00     0.069 C 
BRANCH   7  14
ATOM     14  C   UNL     1      -5.110  -0.530   0.646  1.00  0.00    -0.012 A 
ATOM     15  C   UNL     1      -6.268  -0.200   1.366  1.00  0.00     0.012 A 
ATOM     16  C   UNL     1      -4.979  -1.822   0.116  1.00  0.00     0.012 A 
ATOM     17  C   UNL     1      -7.279  -1.147   1.548  1.00  0.00     0.040 A 
ATOM     18  C   UNL     1      -5.991  -2.768   0.298  1.00  0.00     0.040 A 
ATOM     19  C   UNL     1      -7.131  -2.421   1.012  1.00  0.00     0.123 A 
ATOM     20  F   UNL     1      -8.102  -3.327   1.187  1.00  0.00    -0.207 F 
ENDBRANCH   7  14
ENDBRANCH   1   2
BRANCH   1  21
ATOM     21  C   UNL     1       2.305   0.142  -0.088  1.00  0.00     0.105 C 
BRANCH  21  22
ATOM     22  C   UNL     1       3.806   0.110   0.145  1.00  0.00     0.224 C 
ATOM     23  O   UNL     1       4.299   0.332   1.244  1.00  0.00    -0.275 OA
ATOM     24  N   UNL     1       4.495  -0.197  -1.014  1.00  0.00    -0.324 N 
ATOM     25  H   UNL     1       3.952  -0.358  -1.858  1.00  0.00     0.170 HD
BRANCH  24  26
ATOM     26  C   UNL     1       5.892  -0.318  -1.181  1.00  0.00     0.077 A 
ATOM     27  C   UNL     1       6.829  -0.138  -0.161  1.00  0.00     0.032 A 
ATOM     28  C   UNL     1       6.353  -0.641  -2.467  1.00  0.00     0.149 A 
ATOM     29  C   UNL     1       8.195  -0.280  -0.433  1.00  0.00     0.041 A 
ATOM     30  C   UNL     1       7.707  -0.784  -2.746  1.00  0.00     0.080 A 
ATOM     31  C   UNL     1       8.619  -0.601  -1.719  1.00  0.00     0.126 A 
ATOM     32  F   UNL     1       5.464  -0.817  -3.458  1.00  0.00    -0.205 F 
ATOM     33  F   UNL     1       9.928  -0.735  -1.967  1.00  0.00    -0.207 F 
ENDBRANCH  24  26
ENDBRANCH  21  22
ENDBRANCH   1  21
TORSDOF 5
