REMARK SMILES Cc1nc2cc(-c3cccc(F)c3)nn2c(C)c1CCC(=O)N1CCN(c2ccc(F)cc2)CC1
REMARK SMILES IDX 19 1 18 2 2 3 3 4 4 5 16 6 5 7 15 8 6 9 14 10 1 11 17 12
REMARK SMILES IDX 7 13 8 14 13 15 9 16 11 17 10 18 12 19 20 20 21 21 22 22
REMARK SMILES IDX 23 23 24 24 35 25 25 26 34 27 26 28 27 29 28 30 33 31 29 32
REMARK SMILES IDX 32 33 30 34 31 35
REMARK H PARENT
ROOT
ATOM      1  C   UNL     1       0.249  -0.130  -2.703  1.00  0.00     0.049 C 
ENDROOT
BRANCH   1   2
ATOM      2  C   UNL     1       1.573  -0.521  -2.086  1.00  0.00    -0.005 C 
ATOM      3  C   UNL     1       1.975  -1.991  -2.077  1.00  0.00     0.045 C 
ATOM      4  N   UNL     1       3.049  -2.474  -1.522  1.00  0.00    -0.234 NA
ATOM      5  C   UNL     1       3.888  -1.579  -0.936  1.00  0.00     0.156 A 
ATOM      6  C   UNL     1       2.486   0.321  -1.540  1.00  0.00     0.046 C 
ATOM      7  C   UNL     1       5.075  -1.755  -0.268  1.00  0.00     0.080 A 
ATOM      8  N   UNL     1       3.648  -0.209  -0.949  1.00  0.00    -0.219 N 
ATOM      9  C   UNL     1       5.517  -0.461   0.097  1.00  0.00     0.095 A 
ATOM     10  N   UNL     1       4.646   0.468  -0.324  1.00  0.00    -0.166 NA
ATOM     11  C   UNL     1       1.094  -2.996  -2.792  1.00  0.00     0.067 C 
ATOM     12  C   UNL     1       2.366   1.820  -1.486  1.00  0.00     0.067 C 
BRANCH   9  13
ATOM     13  C   UNL     1       6.736  -0.087   0.827  1.00  0.00     0.005 A 
ATOM     14  C   UNL     1       7.679  -1.053   1.220  1.00  0.00     0.010 A 
ATOM     15  C   UNL     1       6.984   1.256   1.149  1.00  0.00     0.049 A 
ATOM     16  C   UNL     1       8.837  -0.686   1.916  1.00  0.00     0.004 A 
ATOM     17  C   UNL     1       8.138   1.610   1.841  1.00  0.00     0.123 A 
ATOM     18  C   UNL     1       9.066   0.651   2.227  1.00  0.00     0.039 A 
ATOM     19  F   UNL     1       8.359   2.896   2.141  1.00  0.00    -0.207 F 
ENDBRANCH   9  13
ENDBRANCH   1   2
BRANCH   1  20
ATOM     20  C   UNL     1      -0.945  -0.383  -1.770  1.00  0.00     0.105 C 
BRANCH  20  21
ATOM     21  C   UNL     1      -1.272   0.785  -0.849  1.00  0.00     0.223 C 
ATOM     22  O   UNL     1      -0.702   1.869  -0.954  1.00  0.00    -0.275 OA
ATOM     23  N   UNL     1      -2.270   0.570   0.090  1.00  0.00    -0.339 N 
ATOM     24  C   UNL     1      -3.020  -0.687   0.241  1.00  0.00     0.141 C 
ATOM     25  C   UNL     1      -2.685   1.671   0.969  1.00  0.00     0.141 C 
ATOM     26  C   UNL     1      -3.993  -0.666   1.432  1.00  0.00     0.138 C 
ATOM     27  C   UNL     1      -4.220   1.797   1.052  1.00  0.00     0.138 C 
ATOM     28  N   UNL     1      -4.885   0.505   1.366  1.00  0.00    -0.368 N 
BRANCH  28  29
ATOM     29  C   UNL     1      -6.218   0.392   0.971  1.00  0.00     0.037 A 
ATOM     30  C   UNL     1      -6.741  -0.751   0.342  1.00  0.00     0.029 A 
ATOM     31  C   UNL     1      -7.119   1.448   1.214  1.00  0.00     0.029 A 
ATOM     32  C   UNL     1      -8.087  -0.833  -0.035  1.00  0.00     0.041 A 
ATOM     33  C   UNL     1      -8.465   1.375   0.842  1.00  0.00     0.041 A 
ATOM     34  C   UNL     1      -8.937   0.232   0.218  1.00  0.00     0.123 A 
ATOM     35  F   UNL     1     -10.224   0.154  -0.142  1.00  0.00    -0.207 F 
ENDBRANCH  28  29
ENDBRANCH  20  21
ENDBRANCH   1  20
TORSDOF 5
