REMARK SMILES CSc1ccc(CCNC(=O)CCc2c(C)nc3c(c(C)nn3-c3ccc(C)c(C)c3)c2C)cc1
REMARK SMILES IDX 9 1 10 2 11 3 8 5 7 6 6 7 3 8 4 9 35 10 5 11 34 12 2 13 1 14
REMARK SMILES IDX 12 15 13 16 14 17 15 18 32 19 17 20 19 21 18 22 20 23 23 24
REMARK SMILES IDX 22 25 16 26 33 27 21 28 24 29 25 30 31 31 26 32 29 33 27 34
REMARK SMILES IDX 30 35 28 36
REMARK H PARENT 9 4
ROOT
ATOM      1  N   UNL     1       3.241  -0.030  -1.328  1.00  0.00    -0.356 N 
ATOM      2  C   UNL     1       2.468   0.714  -0.463  1.00  0.00     0.220 C 
ATOM      3  O   UNL     1       2.879   1.708   0.124  1.00  0.00    -0.275 OA
ATOM      4  H   UNL     1       2.862  -0.875  -1.735  1.00  0.00     0.163 HD
ENDROOT
BRANCH   1   5
ATOM      5  C   UNL     1       4.626   0.310  -1.597  1.00  0.00     0.120 C 
BRANCH   5   6
ATOM      6  C   UNL     1       5.562  -0.143  -0.475  1.00  0.00     0.056 C 
BRANCH   6   7
ATOM      7  C   UNL     1       7.002   0.184  -0.782  1.00  0.00    -0.046 A 
ATOM      8  C   UNL     1       9.677   0.819  -1.386  1.00  0.00     0.007 A 
ATOM      9  C   UNL     1       8.837   1.776  -0.812  1.00  0.00     0.015 A 
ATOM     10  C   UNL     1       9.167  -0.449  -1.677  1.00  0.00     0.015 A 
ATOM     11  C   UNL     1       7.509   1.461  -0.509  1.00  0.00     0.005 A 
ATOM     12  C   UNL     1       7.840  -0.767  -1.375  1.00  0.00     0.005 A 
BRANCH   8  13
ATOM     13  S   UNL     1      11.373   1.185  -1.802  1.00  0.00    -0.130 SA
ATOM     14  C   UNL     1      11.982   1.735  -0.186  1.00  0.00     0.091 C 
ENDBRANCH   8  13
ENDBRANCH   6   7
ENDBRANCH   5   6
ENDBRANCH   1   5
BRANCH   2  15
ATOM     15  C   UNL     1       1.062   0.172  -0.312  1.00  0.00     0.105 C 
BRANCH  15  16
ATOM     16  C   UNL     1       0.227   1.032   0.637  1.00  0.00     0.047 C 
BRANCH  16  17
ATOM     17  C   UNL     1      -1.180   0.483   0.807  1.00  0.00    -0.022 A 
ATOM     18  C   UNL     1      -2.208   0.879  -0.069  1.00  0.00     0.043 A 
ATOM     19  C   UNL     1      -1.474  -0.458   1.835  1.00  0.00    -0.033 A 
ATOM     20  N   UNL     1      -3.475   0.423  -0.010  1.00  0.00    -0.233 NA
ATOM     21  C   UNL     1      -2.814  -0.918   1.916  1.00  0.00     0.046 A 
ATOM     22  C   UNL     1      -3.733  -0.453   0.981  1.00  0.00     0.163 A 
ATOM     23  C   UNL     1      -3.574  -1.784   2.749  1.00  0.00     0.070 A 
ATOM     24  N   UNL     1      -4.954  -1.060   1.275  1.00  0.00    -0.214 N 
ATOM     25  N   UNL     1      -4.847  -1.878   2.361  1.00  0.00    -0.171 NA
ATOM     26  C   UNL     1      -1.976   1.890  -1.161  1.00  0.00     0.067 C 
ATOM     27  C   UNL     1      -0.407  -0.889   2.807  1.00  0.00     0.045 C 
ATOM     28  C   UNL     1      -3.140  -2.555   3.942  1.00  0.00     0.069 C 
BRANCH  24  29
ATOM     29  C   UNL     1      -6.220  -0.935   0.617  1.00  0.00     0.067 A 
ATOM     30  C   UNL     1      -7.318  -1.657   1.107  1.00  0.00     0.029 A 
ATOM     31  C   UNL     1      -6.403  -0.114  -0.503  1.00  0.00     0.032 A 
ATOM     32  C   UNL     1      -8.567  -1.559   0.490  1.00  0.00     0.006 A 
ATOM     33  C   UNL     1      -7.659  -0.009  -1.133  1.00  0.00    -0.046 A 
ATOM     34  C   UNL     1      -8.753  -0.739  -0.630  1.00  0.00    -0.048 A 
ATOM     35  C   UNL     1      -7.804   0.888  -2.333  1.00  0.00     0.044 C 
ATOM     36  C   UNL     1     -10.113  -0.659  -1.267  1.00  0.00     0.044 C 
ENDBRANCH  24  29
ENDBRANCH  16  17
ENDBRANCH  15  16
ENDBRANCH   2  15
TORSDOF 8
