REMARK SMILES Cc1ccc(Cl)cc1N1CCN(CCCNc2ncnc3onc(-c4ccc(Cl)cc4)c23)CC1
REMARK SMILES IDX 14 1 13 2 12 3 9 4 10 5 34 6 11 7 33 8 8 9 2 10 3 11 4 12
REMARK SMILES IDX 7 13 5 14 1 15 6 16 15 17 16 18 17 20 18 21 32 22 19 23
REMARK SMILES IDX 24 24 21 25 20 26 23 27 22 28 25 29 26 30 31 31 27 32 30 33
REMARK SMILES IDX 28 34 29 35
REMARK H PARENT 16 19
ROOT
ATOM      1  C   UNL     1      -0.887  -0.110   0.901  1.00  0.00     0.037 C 
ENDROOT
BRANCH   1   2
ATOM      2  C   UNL     1       0.358   0.634   1.399  1.00  0.00     0.086 C 
BRANCH   2   3
ATOM      3  N   UNL     1       1.595  -0.148   1.256  1.00  0.00    -0.300 NA
ATOM      4  N   UNL     1       4.138   0.590  -0.191  1.00  0.00    -0.369 N 
ATOM      5  C   UNL     1       3.641   1.365   0.969  1.00  0.00     0.132 C 
ATOM      6  C   UNL     1       3.400  -0.668  -0.450  1.00  0.00     0.132 C 
ATOM      7  C   UNL     1       2.746   0.523   1.906  1.00  0.00     0.106 C 
ATOM      8  C   UNL     1       1.896  -0.466  -0.162  1.00  0.00     0.106 C 
BRANCH   4   9
ATOM      9  C   UNL     1       5.532   0.403  -0.249  1.00  0.00     0.041 A 
ATOM     10  C   UNL     1       6.233   0.770  -1.419  1.00  0.00    -0.028 A 
ATOM     11  C   UNL     1       7.620   0.565  -1.497  1.00  0.00     0.007 A 
ATOM     12  C   UNL     1       8.317   0.006  -0.426  1.00  0.00     0.021 A 
ATOM     13  C   UNL     1       6.250  -0.163   0.817  1.00  0.00     0.046 A 
ATOM     14  C   UNL     1       7.627  -0.355   0.726  1.00  0.00     0.043 A 
ATOM     15  C   UNL     1       5.510   1.378  -2.591  1.00  0.00     0.046 C 
ATOM     16  Cl  UNL     1       8.482  -1.050   2.049  1.00  0.00    -0.084 Cl
ENDBRANCH   4   9
ENDBRANCH   2   3
ENDBRANCH   1   2
BRANCH   1  17
ATOM     17  C   UNL     1      -2.148   0.720   1.155  1.00  0.00     0.116 C 
BRANCH  17  18
ATOM     18  N   UNL     1      -3.329   0.047   0.624  1.00  0.00    -0.369 N 
ATOM     19  H   UNL     1      -3.974   0.662   0.138  1.00  0.00     0.162 HD
BRANCH  18  20
ATOM     20  C   UNL     1      -3.984  -0.862   1.455  1.00  0.00     0.143 A 
ATOM     21  N   UNL     1      -3.375  -1.312   2.579  1.00  0.00    -0.219 NA
ATOM     22  C   UNL     1      -5.271  -1.348   1.184  1.00  0.00     0.112 A 
ATOM     23  C   UNL     1      -4.019  -2.172   3.390  1.00  0.00     0.228 A 
ATOM     24  C   UNL     1      -6.278  -1.230   0.183  1.00  0.00     0.127 A 
ATOM     25  C   UNL     1      -5.818  -2.211   2.115  1.00  0.00     0.263 A 
ATOM     26  N   UNL     1      -5.251  -2.664   3.241  1.00  0.00    -0.199 NA
ATOM     27  N   UNL     1      -7.374  -1.930   0.522  1.00  0.00    -0.076 NA
ATOM     28  O   UNL     1      -7.075  -2.550   1.721  1.00  0.00    -0.335 OA
BRANCH  24  29
ATOM     29  C   UNL     1      -6.245  -0.485  -1.071  1.00  0.00     0.005 A 
ATOM     30  C   UNL     1      -5.170  -0.625  -1.960  1.00  0.00     0.012 A 
ATOM     31  C   UNL     1      -7.305   0.369  -1.410  1.00  0.00     0.012 A 
ATOM     32  C   UNL     1      -5.145   0.095  -3.158  1.00  0.00     0.021 A 
ATOM     33  C   UNL     1      -7.280   1.088  -2.608  1.00  0.00     0.021 A 
ATOM     34  C   UNL     1      -6.199   0.949  -3.476  1.00  0.00     0.041 A 
ATOM     35  Cl  UNL     1      -6.165   1.836  -4.949  1.00  0.00    -0.084 Cl
ENDBRANCH  24  29
ENDBRANCH  18  20
ENDBRANCH  17  18
ENDBRANCH   1  17
TORSDOF 7
