REMARK SMILES O=C(Cn1ncc2c1-c1ccccc1OC2)Nc1ccc(Cl)cn1
REMARK SMILES IDX 1 1 2 2 17 3 3 5 4 6 5 7 8 8 6 9 7 10 9 11 16 12 10 13 14 14
REMARK SMILES IDX 15 15 11 16 13 17 12 18 18 19 19 20 24 21 20 22 23 23 21 24
REMARK SMILES IDX 22 25
REMARK H PARENT 17 4
ROOT
ATOM      1  O   UNL     1       0.896  -0.591   2.443  1.00  0.00    -0.273 OA
ATOM      2  C   UNL     1       0.917   0.350   1.653  1.00  0.00     0.247 C 
ATOM      3  N   UNL     1       1.985   0.767   0.878  1.00  0.00    -0.309 N 
ATOM      4  H   UNL     1       1.802   1.520   0.217  1.00  0.00     0.171 HD
ENDROOT
BRANCH   2   5
ATOM      5  C   UNL     1      -0.305   1.227   1.497  1.00  0.00     0.245 C 
BRANCH   5   6
ATOM      6  N   UNL     1      -0.679   1.371   0.105  1.00  0.00    -0.255 N 
ATOM      7  N   UNL     1      -0.014   2.309  -0.630  1.00  0.00    -0.180 NA
ATOM      8  C   UNL     1      -1.636   0.720  -0.619  1.00  0.00     0.079 A 
ATOM      9  C   UNL     1      -0.679   2.336  -1.790  1.00  0.00     0.143 A 
ATOM     10  C   UNL     1      -1.703   1.382  -1.824  1.00  0.00     0.035 A 
ATOM     11  C   UNL     1      -2.554  -0.368  -0.327  1.00  0.00     0.042 A 
ATOM     12  C   UNL     1      -2.706   1.009  -2.843  1.00  0.00     0.269 C 
ATOM     13  C   UNL     1      -2.408  -1.287   0.713  1.00  0.00     0.014 A 
ATOM     14  C   UNL     1      -3.647  -0.505  -1.216  1.00  0.00     0.129 A 
ATOM     15  O   UNL     1      -3.864   0.319  -2.304  1.00  0.00    -0.488 OA
ATOM     16  C   UNL     1      -3.367  -2.287   0.905  1.00  0.00     0.001 A 
ATOM     17  C   UNL     1      -4.610  -1.492  -1.007  1.00  0.00     0.047 A 
ATOM     18  C   UNL     1      -4.470  -2.383   0.056  1.00  0.00     0.004 A 
ENDBRANCH   5   6
ENDBRANCH   2   5
BRANCH   3  19
ATOM     19  C   UNL     1       3.253   0.183   0.844  1.00  0.00     0.132 A 
ATOM     20  C   UNL     1       4.170   0.702  -0.068  1.00  0.00     0.049 A 
ATOM     21  N   UNL     1       3.567  -0.832   1.668  1.00  0.00    -0.238 NA
ATOM     22  C   UNL     1       5.452   0.153  -0.137  1.00  0.00     0.026 A 
ATOM     23  C   UNL     1       4.816  -1.353   1.587  1.00  0.00     0.134 A 
ATOM     24  C   UNL     1       5.782  -0.897   0.708  1.00  0.00     0.059 A 
ATOM     25  Cl  UNL     1       7.344  -1.604   0.660  1.00  0.00    -0.083 Cl
ENDBRANCH   3  19
TORSDOF 3
