REMARK SMILES CC1=C(C(=O)Nc2ccccn2)C(c2ccc(Br)cc2)NC(=S)N1
REMARK SMILES IDX 1 1 2 2 3 3 13 4 21 5 22 6 23 7 24 8 4 11 5 12 6 13 7 15
REMARK SMILES IDX 8 16 12 17 9 18 11 19 10 20 14 21 15 22 20 23 16 24 19 25
REMARK SMILES IDX 17 26 18 27
REMARK H PARENT 21 9 24 10 6 14
ROOT
ATOM      1  C   UNL     1       0.781   1.198   3.141  1.00  0.00     0.065 C 
ATOM      2  C   UNL     1      -0.469   1.256   2.309  1.00  0.00     0.025 C 
ATOM      3  C   UNL     1      -0.534   1.254   0.965  1.00  0.00     0.063 C 
ATOM      4  C   UNL     1      -1.825   1.387   0.208  1.00  0.00     0.149 C 
ATOM      5  N   UNL     1      -2.949   1.582   1.113  1.00  0.00    -0.351 N 
ATOM      6  C   UNL     1      -2.876   1.530   2.465  1.00  0.00     0.171 C 
ATOM      7  S   UNL     1      -4.236   1.678   3.407  1.00  0.00    -0.041 S 
ATOM      8  N   UNL     1      -1.645   1.360   3.019  1.00  0.00    -0.336 N 
ATOM      9  H   UNL     1      -3.869   1.705   0.709  1.00  0.00     0.163 HD
ATOM     10  H   UNL     1      -1.615   1.363   4.034  1.00  0.00     0.169 HD
ENDROOT
BRANCH   3  11
ATOM     11  C   UNL     1       0.676   1.180   0.105  1.00  0.00     0.256 C 
ATOM     12  O   UNL     1       0.926   2.101  -0.662  1.00  0.00    -0.269 OA
ATOM     13  N   UNL     1       1.359   0.003   0.251  1.00  0.00    -0.307 N 
ATOM     14  H   UNL     1       1.000  -0.710   0.872  1.00  0.00     0.171 HD
BRANCH  13  15
ATOM     15  C   UNL     1       2.515  -0.413  -0.407  1.00  0.00     0.132 A 
ATOM     16  C   UNL     1       3.203   0.353  -1.338  1.00  0.00     0.047 A 
ATOM     17  N   UNL     1       2.916  -1.651  -0.046  1.00  0.00    -0.239 NA
ATOM     18  C   UNL     1       4.349  -0.177  -1.928  1.00  0.00     0.005 A 
ATOM     19  C   UNL     1       4.029  -2.142  -0.635  1.00  0.00     0.113 A 
ATOM     20  C   UNL     1       4.774  -1.450  -1.572  1.00  0.00     0.020 A 
ENDBRANCH  13  15
ENDBRANCH   3  11
BRANCH   4  21
ATOM     21  C   UNL     1      -2.096   0.194  -0.702  1.00  0.00    -0.021 A 
ATOM     22  C   UNL     1      -1.868   0.303  -2.084  1.00  0.00     0.007 A 
ATOM     23  C   UNL     1      -2.526  -1.040  -0.185  1.00  0.00     0.007 A 
ATOM     24  C   UNL     1      -2.076  -0.789  -2.929  1.00  0.00     0.016 A 
ATOM     25  C   UNL     1      -2.737  -2.132  -1.030  1.00  0.00     0.016 A 
ATOM     26  C   UNL     1      -2.511  -2.001  -2.398  1.00  0.00     0.017 A 
ATOM     27  Br  UNL     1      -2.791  -3.480  -3.541  1.00  0.00    -0.051 Br
ENDBRANCH   4  21
TORSDOF 3
