REMARK SMILES Cc1ccc(-n2nc(C)c3c(C(F)(F)F)cc(-c4cccnc4)nc32)cc1C
REMARK SMILES IDX 6 1 7 2 8 3 9 4 10 5 11 6 16 7 17 8 24 9 25 10 5 11 2 12
REMARK SMILES IDX 3 13 27 14 4 15 26 16 1 17 28 18 18 19 19 20 23 21 20 22
REMARK SMILES IDX 22 23 21 24 12 25 13 26 14 27 15 28
REMARK H PARENT
ROOT
ATOM      1  N   UNL     1       0.776  -1.535   0.127  1.00  0.00    -0.214 N 
ATOM      2  N   UNL     1       0.811  -2.900   0.115  1.00  0.00    -0.171 NA
ATOM      3  C   UNL     1      -0.451  -3.290  -0.068  1.00  0.00     0.070 A 
ATOM      4  C   UNL     1      -0.755  -4.743  -0.134  1.00  0.00     0.069 C 
ATOM      5  C   UNL     1      -1.340  -2.191  -0.173  1.00  0.00     0.055 A 
ATOM      6  C   UNL     1      -2.725  -1.997  -0.359  1.00  0.00     0.071 A 
ATOM      7  C   UNL     1      -3.170  -0.660  -0.392  1.00  0.00     0.043 A 
ATOM      8  C   UNL     1      -2.274   0.399  -0.250  1.00  0.00     0.075 A 
ATOM      9  N   UNL     1      -0.952   0.214  -0.066  1.00  0.00    -0.228 NA
ATOM     10  C   UNL     1      -0.530  -1.069  -0.039  1.00  0.00     0.164 A 
ENDROOT
BRANCH   1  11
ATOM     11  C   UNL     1       1.992  -0.802   0.297  1.00  0.00     0.067 A 
ATOM     12  C   UNL     1       4.435   0.581   0.644  1.00  0.00    -0.048 A 
ATOM     13  C   UNL     1       4.397  -0.819   0.650  1.00  0.00     0.006 A 
ATOM     14  C   UNL     1       3.238   1.298   0.461  1.00  0.00    -0.046 A 
ATOM     15  C   UNL     1       3.192  -1.504   0.479  1.00  0.00     0.029 A 
ATOM     16  C   UNL     1       2.027   0.598   0.288  1.00  0.00     0.032 A 
ATOM     17  C   UNL     1       5.752   1.284   0.832  1.00  0.00     0.044 C 
ATOM     18  C   UNL     1       3.222   2.804   0.443  1.00  0.00     0.044 C 
ENDBRANCH   1  11
BRANCH   8  19
ATOM     19  C   UNL     1      -2.705   1.809  -0.281  1.00  0.00     0.019 A 
ATOM     20  C   UNL     1      -3.774   2.269  -1.066  1.00  0.00     0.013 A 
ATOM     21  C   UNL     1      -2.050   2.782   0.477  1.00  0.00     0.121 A 
ATOM     22  C   UNL     1      -4.137   3.616  -1.053  1.00  0.00     0.021 A 
ATOM     23  N   UNL     1      -2.380   4.099   0.516  1.00  0.00    -0.264 NA
ATOM     24  C   UNL     1      -3.418   4.484  -0.252  1.00  0.00     0.111 A 
ENDBRANCH   8  19
BRANCH   6  25
ATOM     25  C   UNL     1      -3.708  -3.124  -0.508  1.00  0.00     0.417 C 
ATOM     26  F   UNL     1      -3.419  -3.933  -1.563  1.00  0.00    -0.166 F 
ATOM     27  F   UNL     1      -4.989  -2.702  -0.708  1.00  0.00    -0.166 F 
ATOM     28  F   UNL     1      -3.751  -3.929   0.587  1.00  0.00    -0.166 F 
ENDBRANCH   6  25
TORSDOF 3
