REMARK SMILES CC1OCC23CC4(O)C(=O)N5CCC(=C5C14)OCCCOC(=O)C2(C)O3
REMARK SMILES IDX 6 1 7 2 16 3 15 4 14 5 11 6 9 7 13 8 12 9 10 10 2 11 1 12
REMARK SMILES IDX 3 13 4 14 8 16 17 18 18 19 19 20 5 22 24 23 26 24 25 25
REMARK SMILES IDX 22 27 23 28 21 29 20 30
REMARK H PARENT 8 17
REMARK Flexibility Score:   23.800
ROOT
ATOM      1  C   UNL     1       0.061  -2.656   0.905  1.00  0.00     0.088 C 
ENDROOT
BRANCH   1   2
ATOM      2  C   UNL     1      -1.363  -2.066   0.991  1.00  0.00     0.157 C 
ATOM      3  C   UNL     1      -1.821  -1.169  -0.206  1.00  0.00     0.110 C 
ATOM      4  C   UNL     1      -1.464   0.208   0.288  1.00  0.00     0.068 C 
ATOM      5  C   UNL     1      -1.187   1.447  -0.134  1.00  0.00     0.118 C 
ATOM      6  N   UNL     1      -1.399   0.166   1.650  1.00  0.00    -0.309 N 
ATOM      7  C   UNL     1      -1.423  -1.090   2.187  1.00  0.00     0.259 C 
ATOM      8  C   UNL     1      -1.016   2.387   1.045  1.00  0.00     0.098 C 
ATOM      9  C   UNL     1      -1.268   1.474   2.254  1.00  0.00     0.133 C 
ATOM     10  O   UNL     1      -1.427  -1.400   3.367  1.00  0.00    -0.271 OA
BRANCH   3  11
ATOM     11  C   UNL     1      -1.482  -1.740  -1.599  1.00  0.00     0.127 C 
ATOM     12  C   UNL     1      -1.770  -0.817  -2.778  1.00  0.00     0.039 C 
BRANCH  11  13
ATOM     13  O   UNL     1      -0.197  -2.342  -1.751  1.00  0.00    -0.375 OA
BRANCH  13  14
ATOM     14  C   UNL     1       0.900  -1.577  -1.273  1.00  0.00     0.199 CG0
ATOM     15  G   UNL     1       1.080  -1.766   0.220  1.00  0.00     0.000 G0
ENDBRANCH  13  14
ENDBRANCH  11  13
ENDBRANCH   3  11
BRANCH   2  16
ATOM     16  O   UNL     1      -2.301  -3.126   1.196  1.00  0.00    -0.379 OA
ATOM     17  H   UNL     1      -2.143  -3.465   2.099  1.00  0.00     0.212 HD
ENDBRANCH   2  16
BRANCH   5  18
ATOM     18  O   UNL     1      -1.100   1.849  -1.431  1.00  0.00    -0.496 OA
BRANCH  18  19
ATOM     19  C   UNL     1      -0.228   2.944  -1.730  1.00  0.00     0.232 C 
BRANCH  19  20
ATOM     20  C   UNL     1       1.181   2.489  -2.128  1.00  0.00     0.083 CG1
ATOM     21  G   UNL     1       2.152   2.292  -0.960  1.00  0.00     0.000 G1
ENDBRANCH  19  20
ENDBRANCH  18  19
ENDBRANCH   5  18
ENDBRANCH   1   2
BRANCH   1  22
ATOM     22  C   UNL     1       1.080  -1.766   0.220  1.00  0.00     0.136 CG0
ATOM     23  C   UNL     1       2.049  -0.828   1.007  1.00  0.00     0.194 C 
ATOM     24  O   UNL     1       2.435  -2.131   0.542  1.00  0.00    -0.348 OA
ATOM     25  C   UNL     1       2.064  -0.750   2.506  1.00  0.00     0.058 C 
ATOM     26  G   UNL     1       0.900  -1.577  -1.273  1.00  0.00     0.000 G0
BRANCH  23  27
ATOM     27  C   UNL     1       2.673   0.309   0.264  1.00  0.00     0.341 C 
ATOM     28  O   UNL     1       3.877   0.410   0.089  1.00  0.00    -0.249 OA
BRANCH  27  29
ATOM     29  O   UNL     1       1.727   1.192  -0.146  1.00  0.00    -0.463 OA
BRANCH  29  30
ATOM     30  C   UNL     1       2.152   2.292  -0.960  1.00  0.00     0.236 CG1
ATOM     31  G   UNL     1       1.181   2.489  -2.128  1.00  0.00     0.000 G1
ENDBRANCH  29  30
ENDBRANCH  27  29
ENDBRANCH  23  27
ENDBRANCH   1  22
TORSDOF 1
