REMARK SMILES C=C1C2OC(O)C3C1CC(O)C3(C)O2
REMARK SMILES IDX 1 1 2 2 3 3 4 4 5 5 7 6 8 7 9 8 10 9 12 10 13 11 14 12 6 13
REMARK SMILES IDX 11 15
REMARK H PARENT 6 14 11 16
ROOT
ATOM      1  C   UNL     1       2.807  -0.121  -1.445  1.00  0.00     0.013 C 
ATOM      2  C   UNL     1       1.714  -0.009  -0.676  1.00  0.00    -0.018 C 
ATOM      3  C   UNL     1       1.617  -0.445   0.768  1.00  0.00     0.281 C 
ATOM      4  O   UNL     1       1.506   0.707   1.599  1.00  0.00    -0.320 OA
ATOM      5  C   UNL     1       0.435   1.537   1.180  1.00  0.00     0.256 C 
ATOM      6  C   UNL     1      -0.427   0.858   0.123  1.00  0.00     0.087 C 
ATOM      7  C   UNL     1       0.411   0.603  -1.145  1.00  0.00     0.033 C 
ATOM      8  C   UNL     1      -0.436  -0.410  -1.923  1.00  0.00     0.043 C 
ATOM      9  C   UNL     1      -1.186  -1.219  -0.851  1.00  0.00     0.147 C 
ATOM     10  C   UNL     1      -0.745  -0.602   0.505  1.00  0.00     0.103 C 
ATOM     11  C   UNL     1      -1.780  -0.774   1.609  1.00  0.00     0.046 C 
ATOM     12  O   UNL     1       0.465  -1.272   0.926  1.00  0.00    -0.339 OA
ENDROOT
BRANCH   5  13
ATOM     13  O   UNL     1      -0.356   1.874   2.303  1.00  0.00    -0.367 OA
ATOM     14  H   UNL     1       0.277   2.243   2.943  1.00  0.00     0.213 HD
ENDBRANCH   5  13
BRANCH   9  15
ATOM     15  O   UNL     1      -2.587  -1.120  -1.096  1.00  0.00    -0.390 OA
ATOM     16  H   UNL     1      -2.861  -0.193  -0.993  1.00  0.00     0.211 HD
ENDBRANCH   9  15
TORSDOF 2
