REMARK SMILES Cc1cc(Nc2cccc(Cl)c2)nc2ccc(NC(=O)Cc3c(F)cccc3Cl)cc12
REMARK SMILES IDX 1 1 2 2 3 3 4 4 13 5 14 6 15 7 16 8 17 9 30 10 31 11 5 12
REMARK SMILES IDX 6 14 7 15 12 16 8 17 10 18 9 19 11 20 18 21 19 22 20 23
REMARK SMILES IDX 21 25 22 26 23 27 28 28 25 29 27 30 26 31 24 32 29 33
REMARK H PARENT 5 13 18 24
ROOT
ATOM      1  C   UNL     1      -0.239  -1.796  -3.140  1.00  0.00     0.045 C 
ATOM      2  C   UNL     1      -1.077  -1.194  -2.046  1.00  0.00    -0.038 A 
ATOM      3  C   UNL     1      -2.438  -1.512  -1.981  1.00  0.00     0.051 A 
ATOM      4  C   UNL     1      -3.238  -0.967  -0.980  1.00  0.00     0.131 A 
ATOM      5  N   UNL     1      -2.728  -0.121  -0.067  1.00  0.00    -0.231 NA
ATOM      6  C   UNL     1      -1.424   0.197  -0.110  1.00  0.00     0.073 A 
ATOM      7  C   UNL     1      -0.929   1.066   0.849  1.00  0.00     0.031 A 
ATOM      8  C   UNL     1       0.416   1.454   0.881  1.00  0.00     0.028 A 
ATOM      9  C   UNL     1       1.304   0.965  -0.067  1.00  0.00     0.041 A 
ATOM     10  C   UNL     1       0.821   0.086  -1.044  1.00  0.00     0.036 A 
ATOM     11  C   UNL     1      -0.539  -0.311  -1.082  1.00  0.00     0.005 A 
ENDROOT
BRANCH   4  12
ATOM     12  N   UNL     1      -4.609  -1.323  -0.972  1.00  0.00    -0.340 N 
ATOM     13  H   UNL     1      -4.691  -2.330  -1.050  1.00  0.00     0.168 HD
BRANCH  12  14
ATOM     14  C   UNL     1      -5.662  -0.765  -0.214  1.00  0.00     0.041 A 
ATOM     15  C   UNL     1      -5.656   0.561   0.238  1.00  0.00     0.026 A 
ATOM     16  C   UNL     1      -6.825  -1.523  -0.006  1.00  0.00     0.046 A 
ATOM     17  C   UNL     1      -6.747   1.098   0.930  1.00  0.00     0.004 A 
ATOM     18  C   UNL     1      -7.914  -0.986   0.685  1.00  0.00     0.043 A 
ATOM     19  C   UNL     1      -7.878   0.320   1.160  1.00  0.00     0.020 A 
ATOM     20  Cl  UNL     1      -9.318  -1.949   0.943  1.00  0.00    -0.084 Cl
ENDBRANCH  12  14
ENDBRANCH   4  12
BRANCH   9  21
ATOM     21  N   UNL     1       2.672   1.300  -0.118  1.00  0.00    -0.326 N 
ATOM     22  C   UNL     1       3.381   2.102   0.763  1.00  0.00     0.228 C 
ATOM     23  O   UNL     1       2.935   2.658   1.761  1.00  0.00    -0.274 OA
ATOM     24  H   UNL     1       3.210   0.862  -0.859  1.00  0.00     0.169 HD
BRANCH  22  25
ATOM     25  C   UNL     1       4.846   2.243   0.377  1.00  0.00     0.140 C 
BRANCH  25  26
ATOM     26  C   UNL     1       5.673   1.070   0.838  1.00  0.00     0.016 A 
ATOM     27  C   UNL     1       5.724  -0.075   0.033  1.00  0.00     0.128 A 
ATOM     28  C   UNL     1       6.363   1.041   2.057  1.00  0.00     0.047 A 
ATOM     29  C   UNL     1       6.446  -1.207   0.401  1.00  0.00     0.039 A 
ATOM     30  C   UNL     1       7.092  -0.094   2.436  1.00  0.00     0.021 A 
ATOM     31  C   UNL     1       7.136  -1.216   1.608  1.00  0.00     0.005 A 
ATOM     32  F   UNL     1       5.045  -0.095  -1.125  1.00  0.00    -0.207 F 
ATOM     33  Cl  UNL     1       6.358   2.381   3.145  1.00  0.00    -0.084 Cl
ENDBRANCH  25  26
ENDBRANCH  22  25
ENDBRANCH   9  21
TORSDOF 5
