REMARK SMILES CCOC(=O)C1=C(CN2CCN(C)CC2)NC(=O)NC1c1ccc(F)cc1
REMARK SMILES IDX 6 1 7 2 16 3 17 4 18 5 19 6 20 7 4 10 5 11 3 12 2 13 1 14
REMARK SMILES IDX 8 15 9 16 10 17 15 18 11 19 14 20 12 21 13 22 21 23 22 24
REMARK SMILES IDX 27 25 23 26 26 27 24 28 25 29
REMARK H PARENT 16 8 19 9
ROOT
ATOM      1  C   UNL     1      -1.056   0.124  -0.111  1.00  0.00     0.085 C 
ATOM      2  C   UNL     1       0.024   0.380  -0.874  1.00  0.00     0.046 C 
ATOM      3  N   UNL     1       0.011   1.513  -1.659  1.00  0.00    -0.310 N 
ATOM      4  C   UNL     1      -0.970   2.452  -1.688  1.00  0.00     0.319 C 
ATOM      5  O   UNL     1      -0.897   3.459  -2.382  1.00  0.00    -0.248 OA
ATOM      6  N   UNL     1      -2.040   2.224  -0.887  1.00  0.00    -0.327 N 
ATOM      7  C   UNL     1      -2.261   1.021  -0.107  1.00  0.00     0.154 C 
ATOM      8  H   UNL     1       0.846   1.711  -2.206  1.00  0.00     0.171 HD
ATOM      9  H   UNL     1      -2.774   2.915  -0.947  1.00  0.00     0.166 HD
ENDROOT
BRANCH   1  10
ATOM     10  C   UNL     1      -1.116  -1.095   0.724  1.00  0.00     0.338 C 
ATOM     11  O   UNL     1      -0.669  -2.182   0.394  1.00  0.00    -0.246 OA
BRANCH  10  12
ATOM     12  O   UNL     1      -1.729  -0.812   1.901  1.00  0.00    -0.463 OA
BRANCH  12  13
ATOM     13  C   UNL     1      -1.855  -1.936   2.781  1.00  0.00     0.230 C 
ATOM     14  C   UNL     1      -2.604  -1.482   4.018  1.00  0.00     0.049 C 
ENDBRANCH  12  13
ENDBRANCH  10  12
ENDBRANCH   1  10
BRANCH   2  15
ATOM     15  C   UNL     1       1.294  -0.454  -0.960  1.00  0.00     0.139 C 
BRANCH  15  16
ATOM     16  N   UNL     1       2.504   0.369  -1.193  1.00  0.00    -0.295 NA
ATOM     17  C   UNL     1       2.831   1.177   0.011  1.00  0.00     0.100 C 
ATOM     18  C   UNL     1       3.655  -0.479  -1.580  1.00  0.00     0.100 C 
ATOM     19  C   UNL     1       4.337   1.494   0.137  1.00  0.00     0.099 C 
ATOM     20  C   UNL     1       4.595  -0.870  -0.417  1.00  0.00     0.099 C 
ATOM     21  N   UNL     1       5.146   0.274   0.335  1.00  0.00    -0.304 NA
ATOM     22  C   UNL     1       6.544   0.528  -0.002  1.00  0.00     0.105 C 
ENDBRANCH  15  16
ENDBRANCH   2  15
BRANCH   7  23
ATOM     23  C   UNL     1      -3.528   0.327  -0.592  1.00  0.00    -0.021 A 
ATOM     24  C   UNL     1      -3.659  -0.097  -1.928  1.00  0.00     0.009 A 
ATOM     25  C   UNL     1      -4.588   0.087   0.301  1.00  0.00     0.009 A 
ATOM     26  C   UNL     1      -4.820  -0.742  -2.358  1.00  0.00     0.039 A 
ATOM     27  C   UNL     1      -5.747  -0.560  -0.132  1.00  0.00     0.039 A 
ATOM     28  C   UNL     1      -5.852  -0.968  -1.456  1.00  0.00     0.123 A 
ATOM     29  F   UNL     1      -6.965  -1.588  -1.868  1.00  0.00    -0.207 F 
ENDBRANCH   7  23
TORSDOF 6
