REMARK SMILES CCNc1nc(Nc2ccc(C)c(Cl)c2)c2cnn(C)c2n1
REMARK SMILES IDX 4 1 5 2 6 3 16 4 17 5 18 6 19 7 20 8 21 9 22 10 3 11 2 13
REMARK SMILES IDX 1 14 7 15 8 17 9 18 15 19 10 20 13 21 11 22 14 23 12 24
REMARK H PARENT 3 12 7 16
ROOT
ATOM      1  C   UNL     1      -2.340  -0.976   0.686  1.00  0.00     0.226 A 
ATOM      2  N   UNL     1      -1.098  -1.144   1.180  1.00  0.00    -0.195 NA
ATOM      3  C   UNL     1      -0.131  -0.229   0.920  1.00  0.00     0.147 A 
ATOM      4  C   UNL     1      -0.484   0.901   0.179  1.00  0.00     0.082 A 
ATOM      5  C   UNL     1       0.106   2.097  -0.278  1.00  0.00     0.149 A 
ATOM      6  N   UNL     1      -0.741   2.859  -0.980  1.00  0.00    -0.179 NA
ATOM      7  N   UNL     1      -1.889   2.142  -0.962  1.00  0.00    -0.250 N 
ATOM      8  C   UNL     1      -3.056   2.655  -1.633  1.00  0.00     0.176 C 
ATOM      9  C   UNL     1      -1.789   0.969  -0.265  1.00  0.00     0.165 A 
ATOM     10  N   UNL     1      -2.754   0.064  -0.049  1.00  0.00    -0.193 NA
ENDROOT
BRANCH   1  11
ATOM     11  N   UNL     1      -3.224  -2.001   1.001  1.00  0.00    -0.354 N 
ATOM     12  H   UNL     1      -2.796  -2.500   1.774  1.00  0.00     0.163 HD
BRANCH  11  13
ATOM     13  C   UNL     1      -4.608  -1.615   1.206  1.00  0.00     0.112 C 
ATOM     14  C   UNL     1      -5.407  -1.751  -0.080  1.00  0.00     0.027 C 
ENDBRANCH  11  13
ENDBRANCH   1  11
BRANCH   3  15
ATOM     15  N   UNL     1       1.137  -0.471   1.471  1.00  0.00    -0.339 N 
ATOM     16  H   UNL     1       1.076  -1.363   1.960  1.00  0.00     0.168 HD
BRANCH  15  17
ATOM     17  C   UNL     1       2.396  -0.326   0.851  1.00  0.00     0.041 A 
ATOM     18  C   UNL     1       3.530  -0.238   1.666  1.00  0.00     0.026 A 
ATOM     19  C   UNL     1       2.573  -0.337  -0.535  1.00  0.00     0.046 A 
ATOM     20  C   UNL     1       4.809  -0.123   1.112  1.00  0.00     0.007 A 
ATOM     21  C   UNL     1       3.852  -0.222  -1.094  1.00  0.00     0.046 A 
ATOM     22  C   UNL     1       4.986  -0.109  -0.277  1.00  0.00    -0.032 A 
ATOM     23  Cl  UNL     1       3.982  -0.236  -2.818  1.00  0.00    -0.084 Cl
ATOM     24  C   UNL     1       6.370   0.017  -0.848  1.00  0.00     0.046 C 
ENDBRANCH  15  17
ENDBRANCH   3  15
TORSDOF 4
