REMARK SMILES CCCNc1nc(Nc2ccc(C)c(Cl)c2)c2cnn(C)c2n1
REMARK SMILES IDX 5 1 6 2 7 3 17 4 18 5 19 6 20 7 21 8 22 9 23 10 4 11 3 13
REMARK SMILES IDX 2 14 1 15 8 16 9 18 10 19 16 20 11 21 14 22 12 23 15 24
REMARK SMILES IDX 13 25
REMARK H PARENT 4 12 8 17
ROOT
ATOM      1  C   UNL     1       2.433  -0.487   0.455  1.00  0.00     0.226 A 
ATOM      2  N   UNL     1       1.510   0.131  -0.307  1.00  0.00    -0.195 NA
ATOM      3  C   UNL     1       0.293  -0.433  -0.498  1.00  0.00     0.147 A 
ATOM      4  C   UNL     1       0.057  -1.685   0.071  1.00  0.00     0.082 A 
ATOM      5  C   UNL     1      -0.963  -2.656   0.112  1.00  0.00     0.149 A 
ATOM      6  N   UNL     1      -0.634  -3.725   0.847  1.00  0.00    -0.179 NA
ATOM      7  N   UNL     1       0.616  -3.433   1.274  1.00  0.00    -0.250 N 
ATOM      8  C   UNL     1       1.316  -4.372   2.114  1.00  0.00     0.176 C 
ATOM      9  C   UNL     1       1.080  -2.228   0.823  1.00  0.00     0.165 A 
ATOM     10  N   UNL     1       2.281  -1.676   1.053  1.00  0.00    -0.193 NA
ENDROOT
BRANCH   1  11
ATOM     11  N   UNL     1       3.667   0.114   0.670  1.00  0.00    -0.354 N 
ATOM     12  H   UNL     1       4.278  -0.625   1.002  1.00  0.00     0.163 HD
BRANCH  11  13
ATOM     13  C   UNL     1       4.198   0.909  -0.423  1.00  0.00     0.116 C 
BRANCH  13  14
ATOM     14  C   UNL     1       3.809   2.383  -0.295  1.00  0.00     0.018 C 
ATOM     15  C   UNL     1       4.398   3.043   0.944  1.00  0.00     0.006 C 
ENDBRANCH  13  14
ENDBRANCH  11  13
ENDBRANCH   1  11
BRANCH   3  16
ATOM     16  N   UNL     1      -0.613   0.273  -1.306  1.00  0.00    -0.339 N 
ATOM     17  H   UNL     1      -0.149   1.143  -1.563  1.00  0.00     0.168 HD
BRANCH  16  18
ATOM     18  C   UNL     1      -1.988   0.493  -1.076  1.00  0.00     0.041 A 
ATOM     19  C   UNL     1      -2.791   0.864  -2.160  1.00  0.00     0.026 A 
ATOM     20  C   UNL     1      -2.570   0.435   0.194  1.00  0.00     0.046 A 
ATOM     21  C   UNL     1      -4.153   1.128  -1.991  1.00  0.00     0.007 A 
ATOM     22  C   UNL     1      -3.934   0.699   0.368  1.00  0.00     0.046 A 
ATOM     23  C   UNL     1      -4.744   1.044  -0.724  1.00  0.00    -0.032 A 
ATOM     24  Cl  UNL     1      -4.577   0.596   1.969  1.00  0.00    -0.084 Cl
ATOM     25  C   UNL     1      -6.211   1.333  -0.568  1.00  0.00     0.046 C 
ENDBRANCH  16  18
ENDBRANCH   3  16
TORSDOF 5
