REMARK SMILES Cn1ncc2c(Nc3ccc(F)cc3)nc(NCc3ccccc3)nc21
REMARK SMILES IDX 1 1 2 2 3 3 4 4 5 5 6 6 15 7 16 8 25 9 26 10 17 11 18 13
REMARK SMILES IDX 19 14 20 15 24 16 21 17 23 18 22 19 7 20 8 22 9 23 14 24
REMARK SMILES IDX 10 25 13 26 11 27 12 28
REMARK H PARENT 17 12 7 21
ROOT
ATOM      1  C   UNL     1      -0.592   5.079  -1.192  1.00  0.00     0.176 C 
ATOM      2  N   UNL     1       0.481   4.194  -0.816  1.00  0.00    -0.250 N 
ATOM      3  N   UNL     1       1.712   4.704  -0.576  1.00  0.00    -0.179 NA
ATOM      4  C   UNL     1       2.437   3.621  -0.275  1.00  0.00     0.149 A 
ATOM      5  C   UNL     1       1.686   2.428  -0.311  1.00  0.00     0.082 A 
ATOM      6  C   UNL     1       1.885   1.057  -0.099  1.00  0.00     0.147 A 
ATOM      7  N   UNL     1       0.801   0.252  -0.255  1.00  0.00    -0.195 NA
ATOM      8  C   UNL     1      -0.395   0.758  -0.606  1.00  0.00     0.227 A 
ATOM      9  N   UNL     1      -0.662   2.053  -0.821  1.00  0.00    -0.193 NA
ATOM     10  C   UNL     1       0.414   2.836  -0.663  1.00  0.00     0.165 A 
ENDROOT
BRANCH   8  11
ATOM     11  N   UNL     1      -1.405  -0.185  -0.739  1.00  0.00    -0.350 N 
ATOM     12  H   UNL     1      -1.073  -1.023  -0.274  1.00  0.00     0.164 HD
BRANCH  11  13
ATOM     13  C   UNL     1      -2.704   0.273  -0.294  1.00  0.00     0.152 C 
BRANCH  13  14
ATOM     14  C   UNL     1      -3.657  -0.900  -0.265  1.00  0.00    -0.029 A 
ATOM     15  C   UNL     1      -4.050  -1.476   0.952  1.00  0.00     0.005 A 
ATOM     16  C   UNL     1      -4.143  -1.446  -1.462  1.00  0.00     0.005 A 
ATOM     17  C   UNL     1      -4.922  -2.566   0.969  1.00  0.00     0.000 A 
ATOM     18  C   UNL     1      -5.014  -2.536  -1.443  1.00  0.00     0.000 A 
ATOM     19  C   UNL     1      -5.405  -3.094  -0.227  1.00  0.00     0.000 A 
ENDBRANCH  13  14
ENDBRANCH  11  13
ENDBRANCH   8  11
BRANCH   6  20
ATOM     20  N   UNL     1       3.137   0.550   0.282  1.00  0.00    -0.339 N 
ATOM     21  H   UNL     1       3.840   1.264   0.416  1.00  0.00     0.168 HD
BRANCH  20  22
ATOM     22  C   UNL     1       3.617  -0.762   0.439  1.00  0.00     0.040 A 
ATOM     23  C   UNL     1       2.897  -1.906   0.075  1.00  0.00     0.029 A 
ATOM     24  C   UNL     1       4.877  -0.943   1.042  1.00  0.00     0.029 A 
ATOM     25  C   UNL     1       3.418  -3.188   0.287  1.00  0.00     0.041 A 
ATOM     26  C   UNL     1       5.402  -2.221   1.256  1.00  0.00     0.041 A 
ATOM     27  C   UNL     1       4.666  -3.333   0.875  1.00  0.00     0.123 A 
ATOM     28  F   UNL     1       5.165  -4.559   1.079  1.00  0.00    -0.207 F 
ENDBRANCH  20  22
ENDBRANCH   6  20
TORSDOF 5
