REMARK SMILES Cn1ncc2c(Nc3ccc(F)cc3)nc(N3CCN(c4ccc(F)cc4)CC3)nc21
REMARK SMILES IDX 1 1 2 2 3 3 4 4 5 5 6 6 15 7 16 8 30 9 31 10 17 11 18 12
REMARK SMILES IDX 29 13 19 14 28 15 20 16 21 17 22 18 27 19 23 20 26 21 24 22
REMARK SMILES IDX 25 23 7 24 8 26 9 27 14 28 10 29 13 30 11 31 12 32
REMARK H PARENT 7 25
ROOT
ATOM      1  C   UNL     1      -2.321   4.544   0.646  1.00  0.00     0.176 C 
ATOM      2  N   UNL     1      -2.815   3.191   0.663  1.00  0.00    -0.250 N 
ATOM      3  N   UNL     1      -4.109   2.959   0.984  1.00  0.00    -0.179 NA
ATOM      4  C   UNL     1      -4.208   1.627   0.906  1.00  0.00     0.149 A 
ATOM      5  C   UNL     1      -3.000   1.010   0.522  1.00  0.00     0.082 A 
ATOM      6  C   UNL     1      -2.505  -0.270   0.281  1.00  0.00     0.147 A 
ATOM      7  N   UNL     1      -1.187  -0.391  -0.019  1.00  0.00    -0.195 NA
ATOM      8  C   UNL     1      -0.391   0.696  -0.123  1.00  0.00     0.229 A 
ATOM      9  N   UNL     1      -0.811   1.957   0.064  1.00  0.00    -0.193 NA
ATOM     10  C   UNL     1      -2.107   2.052   0.390  1.00  0.00     0.165 A 
ENDROOT
BRANCH   8  11
ATOM     11  N   UNL     1       0.930   0.495  -0.471  1.00  0.00    -0.337 N 
ATOM     12  C   UNL     1       1.910   1.556  -0.213  1.00  0.00     0.141 C 
ATOM     13  C   UNL     1       1.425  -0.883  -0.519  1.00  0.00     0.141 C 
ATOM     14  C   UNL     1       3.168   1.022   0.510  1.00  0.00     0.138 C 
ATOM     15  C   UNL     1       2.884  -0.944  -1.025  1.00  0.00     0.138 C 
ATOM     16  N   UNL     1       3.786  -0.108  -0.210  1.00  0.00    -0.368 N 
BRANCH  16  17
ATOM     17  C   UNL     1       5.130  -0.411  -0.078  1.00  0.00     0.037 A 
ATOM     18  C   UNL     1       5.806  -1.198  -1.028  1.00  0.00     0.029 A 
ATOM     19  C   UNL     1       5.893   0.056   1.008  1.00  0.00     0.029 A 
ATOM     20  C   UNL     1       7.166  -1.507  -0.903  1.00  0.00     0.041 A 
ATOM     21  C   UNL     1       7.253  -0.249   1.144  1.00  0.00     0.041 A 
ATOM     22  C   UNL     1       7.877  -1.028   0.184  1.00  0.00     0.123 A 
ATOM     23  F   UNL     1       9.178  -1.321   0.309  1.00  0.00    -0.207 F 
ENDBRANCH  16  17
ENDBRANCH   8  11
BRANCH   6  24
ATOM     24  N   UNL     1      -3.246  -1.457   0.380  1.00  0.00    -0.339 N 
ATOM     25  H   UNL     1      -2.604  -2.223   0.183  1.00  0.00     0.168 HD
BRANCH  24  26
ATOM     26  C   UNL     1      -4.529  -1.732  -0.134  1.00  0.00     0.040 A 
ATOM     27  C   UNL     1      -5.228  -2.834   0.381  1.00  0.00     0.029 A 
ATOM     28  C   UNL     1      -5.114  -0.992  -1.171  1.00  0.00     0.029 A 
ATOM     29  C   UNL     1      -6.494  -3.171  -0.104  1.00  0.00     0.041 A 
ATOM     30  C   UNL     1      -6.381  -1.327  -1.659  1.00  0.00     0.041 A 
ATOM     31  C   UNL     1      -7.060  -2.411  -1.118  1.00  0.00     0.123 A 
ATOM     32  F   UNL     1      -8.272  -2.732  -1.588  1.00  0.00    -0.207 F 
ENDBRANCH  24  26
ENDBRANCH   6  24
TORSDOF 4
