REMARK SMILES Cc1ccc(-n2nc3c(=O)n(CCCC(=O)NCc4ccc(Cl)cc4)nc(C)c3c2C)cc1
REMARK SMILES IDX 13 1 12 2 11 3 6 4 7 5 30 6 8 7 29 8 9 9 27 10 10 11 26 12
REMARK SMILES IDX 31 13 28 14 5 15 2 16 3 17 33 18 4 19 32 20 1 21 14 22 15 23
REMARK SMILES IDX 16 24 17 25 18 27 19 28 20 29 25 30 21 31 24 32 22 33 23 34
REMARK H PARENT 17 26
ROOT
ATOM      1  C   UNL     1       2.032   0.613   0.376  1.00  0.00     0.034 C 
ENDROOT
BRANCH   1   2
ATOM      2  C   UNL     1       1.195  -0.512   0.990  1.00  0.00     0.149 C 
BRANCH   2   3
ATOM      3  N   UNL     1      -0.121  -0.597   0.364  1.00  0.00    -0.228 N 
ATOM      4  N   UNL     1      -4.433   0.147  -0.569  1.00  0.00    -0.237 N 
ATOM      5  N   UNL     1      -3.555   0.684   0.322  1.00  0.00    -0.162 NA
ATOM      6  C   UNL     1      -3.768  -0.668  -1.494  1.00  0.00     0.051 A 
ATOM      7  C   UNL     1      -2.403   0.047   0.102  1.00  0.00     0.162 A 
ATOM      8  C   UNL     1      -2.483  -0.814  -0.998  1.00  0.00     0.052 A 
ATOM      9  C   UNL     1      -1.166   0.213   0.853  1.00  0.00     0.295 C 
ATOM     10  C   UNL     1      -1.325  -1.570  -1.409  1.00  0.00     0.069 C 
ATOM     11  O   UNL     1      -1.042   0.980   1.807  1.00  0.00    -0.265 OA
ATOM     12  N   UNL     1      -0.209  -1.441  -0.748  1.00  0.00    -0.174 NA
ATOM     13  C   UNL     1      -4.365  -1.177  -2.756  1.00  0.00     0.067 C 
ATOM     14  C   UNL     1      -1.354  -2.506  -2.583  1.00  0.00     0.069 C 
BRANCH   4  15
ATOM     15  C   UNL     1      -5.820   0.468  -0.438  1.00  0.00     0.065 A 
ATOM     16  C   UNL     1      -8.538   1.155  -0.089  1.00  0.00    -0.051 A 
ATOM     17  C   UNL     1      -8.175   0.050  -0.865  1.00  0.00     0.005 A 
ATOM     18  C   UNL     1      -7.533   1.917   0.512  1.00  0.00     0.005 A 
ATOM     19  C   UNL     1      -6.829  -0.300  -1.029  1.00  0.00     0.028 A 
ATOM     20  C   UNL     1      -6.189   1.570   0.351  1.00  0.00     0.028 A 
ATOM     21  C   UNL     1      -9.979   1.545   0.058  1.00  0.00     0.044 C 
ENDBRANCH   4  15
ENDBRANCH   2   3
ENDBRANCH   1   2
BRANCH   1  22
ATOM     22  C   UNL     1       3.307   0.894   1.169  1.00  0.00     0.102 C 
BRANCH  22  23
ATOM     23  C   UNL     1       4.343  -0.209   1.069  1.00  0.00     0.220 C 
ATOM     24  O   UNL     1       4.219  -1.197   0.355  1.00  0.00    -0.275 OA
ATOM     25  N   UNL     1       5.441   0.022   1.867  1.00  0.00    -0.352 N 
ATOM     26  H   UNL     1       5.552   0.934   2.289  1.00  0.00     0.163 HD
BRANCH  25  27
ATOM     27  C   UNL     1       6.598  -0.844   1.839  1.00  0.00     0.151 C 
BRANCH  27  28
ATOM     28  C   UNL     1       7.675  -0.268   0.954  1.00  0.00    -0.029 A 
ATOM     29  C   UNL     1       7.612  -0.442  -0.437  1.00  0.00     0.007 A 
ATOM     30  C   UNL     1       8.731   0.476   1.500  1.00  0.00     0.007 A 
ATOM     31  C   UNL     1       8.592   0.107  -1.266  1.00  0.00     0.021 A 
ATOM     32  C   UNL     1       9.713   1.024   0.671  1.00  0.00     0.021 A 
ATOM     33  C   UNL     1       9.639   0.836  -0.708  1.00  0.00     0.041 A 
ATOM     34  Cl  UNL     1      10.848   1.514  -1.728  1.00  0.00    -0.084 Cl
ENDBRANCH  27  28
ENDBRANCH  25  27
ENDBRANCH  22  23
ENDBRANCH   1  22
TORSDOF 7
