REMARK SMILES Cc1ccc(-n2nc3c(N4CCC(C(=O)NCCc5ccco5)CC4)nnc(C)c3c2C)cc1
REMARK SMILES IDX 10 1 11 2 12 3 13 4 24 5 25 6 9 7 6 8 7 9 31 10 8 11 30 12
REMARK SMILES IDX 28 13 26 14 27 15 32 16 29 17 5 18 2 19 3 20 34 21 4 22
REMARK SMILES IDX 33 23 1 24 14 25 15 26 16 27 17 29 18 30 19 31 20 32 23 33
REMARK SMILES IDX 21 34 22 35
REMARK H PARENT 16 28
ROOT
ATOM      1  N   UNL     1      -0.173   2.911  -0.260  1.00  0.00    -0.353 N 
ATOM      2  C   UNL     1      -0.324   2.161  -1.507  1.00  0.00     0.119 C 
ATOM      3  C   UNL     1       0.546   0.908  -1.471  1.00  0.00     0.035 C 
ATOM      4  C   UNL     1       2.016   1.267  -1.185  1.00  0.00     0.082 C 
ATOM      5  C   UNL     1       2.136   2.145   0.074  1.00  0.00     0.035 C 
ATOM      6  C   UNL     1       1.199   3.352   0.002  1.00  0.00     0.119 C 
ENDROOT
BRANCH   1   7
ATOM      7  C   UNL     1      -0.884   2.487   0.876  1.00  0.00     0.179 A 
ATOM      8  N   UNL     1      -3.767   0.378   0.541  1.00  0.00    -0.237 N 
ATOM      9  N   UNL     1      -2.825   1.153  -0.048  1.00  0.00    -0.164 NA
ATOM     10  C   UNL     1      -3.840   0.609   1.912  1.00  0.00     0.051 A 
ATOM     11  C   UNL     1      -2.081   1.686   0.939  1.00  0.00     0.139 A 
ATOM     12  C   UNL     1      -2.703   1.339   2.203  1.00  0.00     0.050 A 
ATOM     13  C   UNL     1      -2.248   1.723   3.475  1.00  0.00     0.071 A 
ATOM     14  N   UNL     1      -0.473   2.851   2.139  1.00  0.00    -0.130 NA
ATOM     15  N   UNL     1      -1.123   2.484   3.397  1.00  0.00    -0.153 NA
ATOM     16  C   UNL     1      -4.970   0.179   2.778  1.00  0.00     0.067 C 
ATOM     17  C   UNL     1      -2.800   1.424   4.825  1.00  0.00     0.069 C 
BRANCH   8  18
ATOM     18  C   UNL     1      -4.515  -0.521  -0.283  1.00  0.00     0.065 A 
ATOM     19  C   UNL     1      -5.947  -2.263  -1.982  1.00  0.00    -0.051 A 
ATOM     20  C   UNL     1      -5.250  -1.174  -2.511  1.00  0.00     0.005 A 
ATOM     21  C   UNL     1      -5.891  -2.497  -0.604  1.00  0.00     0.005 A 
ATOM     22  C   UNL     1      -4.538  -0.313  -1.672  1.00  0.00     0.028 A 
ATOM     23  C   UNL     1      -5.181  -1.635   0.241  1.00  0.00     0.028 A 
ATOM     24  C   UNL     1      -6.680  -3.209  -2.886  1.00  0.00     0.044 C 
ENDBRANCH   8  18
ENDBRANCH   1   7
BRANCH   4  25
ATOM     25  C   UNL     1       2.867   0.006  -1.054  1.00  0.00     0.223 C 
ATOM     26  O   UNL     1       2.403  -1.128  -1.103  1.00  0.00    -0.275 OA
ATOM     27  N   UNL     1       4.215   0.260  -0.896  1.00  0.00    -0.355 N 
ATOM     28  H   UNL     1       4.548   1.178  -1.161  1.00  0.00     0.163 HD
BRANCH  27  29
ATOM     29  C   UNL     1       5.185  -0.825  -0.898  1.00  0.00     0.124 C 
BRANCH  29  30
ATOM     30  C   UNL     1       6.448  -0.453  -0.125  1.00  0.00     0.096 C 
BRANCH  30  31
ATOM     31  C   UNL     1       7.455  -1.540  -0.178  1.00  0.00     0.105 A 
ATOM     32  C   UNL     1       7.763  -2.591   0.658  1.00  0.00     0.045 A 
ATOM     33  O   UNL     1       8.278  -1.550  -1.265  1.00  0.00    -0.469 OA
ATOM     34  C   UNL     1       8.834  -3.285   0.046  1.00  0.00     0.042 A 
ATOM     35  C   UNL     1       9.111  -2.612  -1.120  1.00  0.00     0.195 A 
ENDBRANCH  30  31
ENDBRANCH  29  30
ENDBRANCH  27  29
ENDBRANCH   4  25
TORSDOF 6
