REMARK SMILES Cc1ccc(CNc2ncnc3onc(-c4ccc(F)cc4)c23)cc1
REMARK SMILES IDX 7 1 6 3 5 4 2 5 3 6 25 7 4 8 24 9 1 10 8 11 9 12 23 13 10 14
REMARK SMILES IDX 15 15 12 16 11 17 14 18 13 19 16 20 17 21 22 22 18 23 21 24
REMARK SMILES IDX 19 25 20 26
REMARK H PARENT 7 2
ROOT
ATOM      1  N   UNL     1      -0.525  -0.644  -2.030  1.00  0.00    -0.365 N 
ATOM      2  H   UNL     1      -0.876   0.126  -1.474  1.00  0.00     0.162 HD
ENDROOT
BRANCH   1   3
ATOM      3  C   UNL     1       0.826  -0.415  -2.522  1.00  0.00     0.150 C 
BRANCH   3   4
ATOM      4  C   UNL     1       1.685   0.142  -1.408  1.00  0.00    -0.029 A 
ATOM      5  C   UNL     1       3.211   1.173   0.724  1.00  0.00    -0.051 A 
ATOM      6  C   UNL     1       3.120  -0.208   0.520  1.00  0.00     0.004 A 
ATOM      7  C   UNL     1       2.518   2.035  -0.133  1.00  0.00     0.004 A 
ATOM      8  C   UNL     1       2.367  -0.719  -0.539  1.00  0.00     0.006 A 
ATOM      9  C   UNL     1       1.762   1.524  -1.191  1.00  0.00     0.006 A 
ATOM     10  C   UNL     1       3.994   1.720   1.881  1.00  0.00     0.044 C 
ENDBRANCH   3   4
ENDBRANCH   1   3
BRANCH   1  11
ATOM     11  C   UNL     1      -0.789  -1.900  -1.489  1.00  0.00     0.143 A 
ATOM     12  N   UNL     1      -0.248  -3.000  -2.071  1.00  0.00    -0.219 NA
ATOM     13  C   UNL     1      -1.638  -2.106  -0.393  1.00  0.00     0.112 A 
ATOM     14  C   UNL     1      -0.565  -4.223  -1.609  1.00  0.00     0.228 A 
ATOM     15  C   UNL     1      -2.385  -1.344   0.547  1.00  0.00     0.127 A 
ATOM     16  C   UNL     1      -1.883  -3.418  -0.033  1.00  0.00     0.263 A 
ATOM     17  N   UNL     1      -1.380  -4.526  -0.594  1.00  0.00    -0.199 NA
ATOM     18  N   UNL     1      -3.076  -2.141   1.377  1.00  0.00    -0.076 NA
ATOM     19  O   UNL     1      -2.748  -3.436   1.017  1.00  0.00    -0.335 OA
BRANCH  15  20
ATOM     20  C   UNL     1      -2.447   0.102   0.697  1.00  0.00     0.005 A 
ATOM     21  C   UNL     1      -1.291   0.825   1.030  1.00  0.00     0.013 A 
ATOM     22  C   UNL     1      -3.662   0.778   0.522  1.00  0.00     0.013 A 
ATOM     23  C   UNL     1      -1.349   2.214   1.164  1.00  0.00     0.040 A 
ATOM     24  C   UNL     1      -3.716   2.167   0.658  1.00  0.00     0.040 A 
ATOM     25  C   UNL     1      -2.559   2.871   0.975  1.00  0.00     0.123 A 
ATOM     26  F   UNL     1      -2.612   4.203   1.102  1.00  0.00    -0.207 F 
ENDBRANCH  15  20
ENDBRANCH   1  11
TORSDOF 4
