REMARK SMILES Cc1cc(N2CCN(C)CC2)nc2ccc(NC(=O)Nc3ccc(F)cc3)cc12
REMARK SMILES IDX 1 1 2 2 3 3 4 4 12 5 13 6 14 7 15 8 16 9 28 10 29 11 5 12
REMARK SMILES IDX 6 13 11 14 7 15 10 16 8 17 9 18 17 19 18 20 19 21 20 22
REMARK SMILES IDX 21 25 22 26 27 27 23 28 26 29 24 30 25 31
REMARK H PARENT 17 23 20 24
ROOT
ATOM      1  C   UNL     1      -0.238  -1.999   2.007  1.00  0.00     0.045 C 
ATOM      2  C   UNL     1      -0.923  -0.945   1.182  1.00  0.00    -0.038 A 
ATOM      3  C   UNL     1      -2.317  -0.828   1.250  1.00  0.00     0.051 A 
ATOM      4  C   UNL     1      -2.984   0.139   0.502  1.00  0.00     0.129 A 
ATOM      5  N   UNL     1      -2.297   0.996  -0.280  1.00  0.00    -0.231 NA
ATOM      6  C   UNL     1      -0.960   0.901  -0.358  1.00  0.00     0.073 A 
ATOM      7  C   UNL     1      -0.290   1.792  -1.182  1.00  0.00     0.031 A 
ATOM      8  C   UNL     1       1.100   1.765  -1.327  1.00  0.00     0.028 A 
ATOM      9  C   UNL     1       1.862   0.828  -0.632  1.00  0.00     0.043 A 
ATOM     10  C   UNL     1       1.202  -0.081   0.196  1.00  0.00     0.036 A 
ATOM     11  C   UNL     1      -0.208  -0.058   0.349  1.00  0.00     0.005 A 
ENDROOT
BRANCH   4  12
ATOM     12  N   UNL     1      -4.387   0.242   0.593  1.00  0.00    -0.354 N 
ATOM     13  C   UNL     1      -4.913   1.475  -0.028  1.00  0.00     0.133 C 
ATOM     14  C   UNL     1      -5.081  -0.977   0.128  1.00  0.00     0.133 C 
ATOM     15  C   UNL     1      -6.447   1.565   0.159  1.00  0.00     0.105 C 
ATOM     16  C   UNL     1      -6.615  -0.830   0.296  1.00  0.00     0.105 C 
ATOM     17  N   UNL     1      -7.213   0.384  -0.302  1.00  0.00    -0.303 NA
ATOM     18  C   UNL     1      -7.248   0.304  -1.761  1.00  0.00     0.105 C 
ENDBRANCH   4  12
BRANCH   9  19
ATOM     19  N   UNL     1       3.258   0.851  -0.833  1.00  0.00    -0.308 N 
ATOM     20  C   UNL     1       4.224   0.126  -0.147  1.00  0.00     0.323 C 
ATOM     21  O   UNL     1       4.008  -0.591   0.820  1.00  0.00    -0.248 OA
ATOM     22  N   UNL     1       5.471   0.334  -0.722  1.00  0.00    -0.308 N 
ATOM     23  H   UNL     1       3.603   1.578  -1.440  1.00  0.00     0.171 HD
ATOM     24  H   UNL     1       5.467   0.732  -1.648  1.00  0.00     0.171 HD
BRANCH  22  25
ATOM     25  C   UNL     1       6.718  -0.131  -0.255  1.00  0.00     0.043 A 
ATOM     26  C   UNL     1       7.825   0.050  -1.099  1.00  0.00     0.029 A 
ATOM     27  C   UNL     1       6.910  -0.731   0.993  1.00  0.00     0.029 A 
ATOM     28  C   UNL     1       9.096  -0.374  -0.706  1.00  0.00     0.041 A 
ATOM     29  C   UNL     1       8.183  -1.156   1.387  1.00  0.00     0.041 A 
ATOM     30  C   UNL     1       9.263  -0.975   0.534  1.00  0.00     0.123 A 
ATOM     31  F   UNL     1      10.482  -1.381   0.913  1.00  0.00    -0.207 F 
ENDBRANCH  22  25
ENDBRANCH   9  19
TORSDOF 3
