REMARK SMILES Cc1ccc(C)c(N2CCN(CCCNc3ncnc4onc(-c5ccc(Cl)cc5)c34)CC2)c1
REMARK SMILES IDX 13 1 12 2 11 3 8 4 9 5 33 6 10 7 32 8 7 9 2 10 3 11 34 12
REMARK SMILES IDX 4 13 5 14 1 15 6 16 14 17 15 18 16 20 17 21 31 22 18 23
REMARK SMILES IDX 23 24 20 25 19 26 22 27 21 28 24 29 25 30 30 31 26 32 29 33
REMARK SMILES IDX 27 34 28 35
REMARK H PARENT 15 19
ROOT
ATOM      1  C   UNL     1       1.151  -0.416   1.085  1.00  0.00     0.037 C 
ENDROOT
BRANCH   1   2
ATOM      2  C   UNL     1      -0.024  -1.398   1.179  1.00  0.00     0.086 C 
BRANCH   2   3
ATOM      3  N   UNL     1      -0.801  -1.543  -0.060  1.00  0.00    -0.300 NA
ATOM      4  N   UNL     1      -3.715  -1.218  -0.782  1.00  0.00    -0.369 N 
ATOM      5  C   UNL     1      -3.266  -2.090   0.326  1.00  0.00     0.132 C 
ATOM      6  C   UNL     1      -2.642  -0.413  -1.408  1.00  0.00     0.132 C 
ATOM      7  C   UNL     1      -1.832  -2.603   0.063  1.00  0.00     0.106 C 
ATOM      8  C   UNL     1      -1.412  -0.258  -0.484  1.00  0.00     0.106 C 
BRANCH   4   9
ATOM      9  C   UNL     1      -4.905  -0.537  -0.468  1.00  0.00     0.040 A 
ATOM     10  C   UNL     1      -6.094   1.315   0.613  1.00  0.00    -0.049 A 
ATOM     11  C   UNL     1      -7.310   0.763   0.209  1.00  0.00     0.004 A 
ATOM     12  C   UNL     1      -4.904   0.652   0.283  1.00  0.00     0.029 A 
ATOM     13  C   UNL     1      -7.334  -0.416  -0.535  1.00  0.00     0.006 A 
ATOM     14  C   UNL     1      -6.141  -1.069  -0.886  1.00  0.00    -0.028 A 
ATOM     15  C   UNL     1      -6.062   2.563   1.444  1.00  0.00     0.044 C 
ATOM     16  C   UNL     1      -6.208  -2.338  -1.692  1.00  0.00     0.046 C 
ENDBRANCH   4   9
ENDBRANCH   2   3
ENDBRANCH   1   2
BRANCH   1  17
ATOM     17  C   UNL     1       2.143  -0.791  -0.017  1.00  0.00     0.116 C 
BRANCH  17  18
ATOM     18  N   UNL     1       3.334   0.056   0.049  1.00  0.00    -0.369 N 
ATOM     19  H   UNL     1       4.196  -0.451  -0.128  1.00  0.00     0.162 HD
BRANCH  18  20
ATOM     20  C   UNL     1       3.297   1.275  -0.630  1.00  0.00     0.143 A 
ATOM     21  N   UNL     1       2.108   1.797  -1.027  1.00  0.00    -0.219 NA
ATOM     22  C   UNL     1       4.452   2.011  -0.929  1.00  0.00     0.112 A 
ATOM     23  C   UNL     1       2.083   2.958  -1.707  1.00  0.00     0.228 A 
ATOM     24  C   UNL     1       5.860   1.938  -0.721  1.00  0.00     0.127 A 
ATOM     25  C   UNL     1       4.276   3.180  -1.645  1.00  0.00     0.263 A 
ATOM     26  N   UNL     1       3.122   3.713  -2.069  1.00  0.00    -0.199 NA
ATOM     27  N   UNL     1       6.486   2.966  -1.319  1.00  0.00    -0.076 NA
ATOM     28  O   UNL     1       5.491   3.744  -1.881  1.00  0.00    -0.335 OA
BRANCH  24  29
ATOM     29  C   UNL     1       6.630   0.941   0.015  1.00  0.00     0.005 A 
ATOM     30  C   UNL     1       6.271   0.577   1.320  1.00  0.00     0.012 A 
ATOM     31  C   UNL     1       7.757   0.348  -0.575  1.00  0.00     0.012 A 
ATOM     32  C   UNL     1       7.015  -0.381   2.017  1.00  0.00     0.021 A 
ATOM     33  C   UNL     1       8.500  -0.609   0.122  1.00  0.00     0.021 A 
ATOM     34  C   UNL     1       8.124  -0.970   1.414  1.00  0.00     0.041 A 
ATOM     35  Cl  UNL     1       9.036  -2.150   2.272  1.00  0.00    -0.084 Cl
ENDBRANCH  24  29
ENDBRANCH  18  20
ENDBRANCH  17  18
ENDBRANCH   1  17
TORSDOF 7
