REMARK SMILES Cc1nc(N2CCOCC2)c2c(C(=O)N3CCN(c4cccc(C)c4C)CC3)c(C)oc2n1
REMARK SMILES IDX 13 1 14 2 15 3 16 4 17 5 18 6 27 7 28 8 12 9 2 10 3 11 33 12
REMARK SMILES IDX 4 13 32 14 11 15 31 16 29 17 1 18 30 19 5 20 6 21 10 22 7 23
REMARK SMILES IDX 9 24 8 25 19 26 20 27 25 28 21 29 23 30 22 31 26 32 24 33
REMARK H PARENT
ROOT
ATOM      1  C   UNL     1      -0.767   0.781  -1.657  1.00  0.00     0.258 C 
ATOM      2  O   UNL     1      -0.584   1.550  -2.599  1.00  0.00    -0.269 OA
ATOM      3  N   UNL     1      -0.051   0.891  -0.468  1.00  0.00    -0.335 N 
ATOM      4  C   UNL     1       0.262  -0.262   0.393  1.00  0.00     0.141 C 
ATOM      5  C   UNL     1       1.655  -0.834   0.039  1.00  0.00     0.138 C 
ATOM      6  N   UNL     1       2.674   0.242   0.104  1.00  0.00    -0.368 N 
ATOM      7  C   UNL     1       2.350   1.412  -0.753  1.00  0.00     0.138 C 
ATOM      8  C   UNL     1       0.957   1.953  -0.373  1.00  0.00     0.141 C 
ENDROOT
BRANCH   1   9
ATOM      9  C   UNL     1      -1.743  -0.286  -1.774  1.00  0.00     0.094 A 
ATOM     10  C   UNL     1      -4.886  -2.010   0.153  1.00  0.00     0.131 A 
ATOM     11  N   UNL     1      -4.411  -0.932   0.813  1.00  0.00    -0.215 NA
ATOM     12  N   UNL     1      -4.454  -2.468  -1.026  1.00  0.00    -0.198 NA
ATOM     13  C   UNL     1      -3.394  -0.197   0.295  1.00  0.00     0.144 A 
ATOM     14  C   UNL     1      -3.427  -1.754  -1.497  1.00  0.00     0.232 A 
ATOM     15  C   UNL     1      -2.830  -0.647  -0.913  1.00  0.00     0.096 A 
ATOM     16  O   UNL     1      -2.818  -2.049  -2.677  1.00  0.00    -0.442 OA
ATOM     17  C   UNL     1      -1.815  -1.149  -2.854  1.00  0.00     0.117 A 
ATOM     18  C   UNL     1      -6.042  -2.728   0.779  1.00  0.00     0.090 C 
ATOM     19  C   UNL     1      -1.031  -1.279  -4.101  1.00  0.00     0.088 C 
BRANCH  13  20
ATOM     20  N   UNL     1      -2.924   0.925   0.984  1.00  0.00    -0.351 N 
ATOM     21  C   UNL     1      -3.208   2.207   0.296  1.00  0.00     0.146 C 
ATOM     22  C   UNL     1      -3.277   0.984   2.420  1.00  0.00     0.146 C 
ATOM     23  C   UNL     1      -4.630   2.706   0.601  1.00  0.00     0.181 C 
ATOM     24  C   UNL     1      -4.683   1.560   2.657  1.00  0.00     0.181 C 
ATOM     25  O   UNL     1      -4.844   2.836   2.015  1.00  0.00    -0.378 OA
ENDBRANCH  13  20
ENDBRANCH   1   9
BRANCH   6  26
ATOM     26  C   UNL     1       3.986  -0.241  -0.100  1.00  0.00     0.040 A 
ATOM     27  C   UNL     1       4.390  -0.767  -1.338  1.00  0.00     0.026 A 
ATOM     28  C   UNL     1       4.916  -0.195   0.966  1.00  0.00    -0.025 A 
ATOM     29  C   UNL     1       5.689  -1.228  -1.532  1.00  0.00     0.002 A 
ATOM     30  C   UNL     1       6.246  -0.634   0.755  1.00  0.00    -0.046 A 
ATOM     31  C   UNL     1       6.611  -1.160  -0.493  1.00  0.00     0.004 A 
ATOM     32  C   UNL     1       4.500   0.387   2.296  1.00  0.00     0.047 C 
ATOM     33  C   UNL     1       7.284  -0.572   1.843  1.00  0.00     0.044 C 
ENDBRANCH   6  26
TORSDOF 3
