REMARK SMILES Cc1ccc(C)c(N2CCN(C(=O)c3c(C)oc4nc(C)nc(N5CCOCC5)c34)CC2)c1
REMARK SMILES IDX 8 1 9 2 10 3 11 4 12 5 13 6 31 7 32 8 7 9 2 10 3 11 33 12
REMARK SMILES IDX 4 13 5 14 1 15 6 16 14 17 15 18 30 19 17 20 23 21 18 22
REMARK SMILES IDX 22 23 19 24 20 25 16 26 21 27 24 28 25 29 29 30 26 31 28 32
REMARK SMILES IDX 27 33
REMARK H PARENT
ROOT
ATOM      1  N   UNL     1       2.720  -1.103   0.125  1.00  0.00    -0.368 N 
ATOM      2  C   UNL     1       2.617  -1.169  -1.351  1.00  0.00     0.138 C 
ATOM      3  C   UNL     1       1.150  -1.281  -1.794  1.00  0.00     0.141 C 
ATOM      4  N   UNL     1       0.335  -0.159  -1.317  1.00  0.00    -0.335 N 
ATOM      5  C   UNL     1      -0.849   0.125  -1.992  1.00  0.00     0.258 C 
ATOM      6  O   UNL     1      -1.235  -0.539  -2.949  1.00  0.00    -0.269 OA
ATOM      7  C   UNL     1       0.816   0.528  -0.108  1.00  0.00     0.141 C 
ATOM      8  C   UNL     1       1.625  -0.396   0.821  1.00  0.00     0.138 C 
ENDROOT
BRANCH   1   9
ATOM      9  C   UNL     1       4.021  -0.771   0.546  1.00  0.00     0.040 A 
ATOM     10  C   UNL     1       5.788   0.883   0.934  1.00  0.00    -0.049 A 
ATOM     11  C   UNL     1       6.641  -0.138   1.358  1.00  0.00     0.004 A 
ATOM     12  C   UNL     1       4.483   0.558   0.542  1.00  0.00     0.029 A 
ATOM     13  C   UNL     1       6.203  -1.463   1.366  1.00  0.00     0.006 A 
ATOM     14  C   UNL     1       4.899  -1.790   0.964  1.00  0.00    -0.028 A 
ATOM     15  C   UNL     1       6.244   2.311   0.951  1.00  0.00     0.044 C 
ATOM     16  C   UNL     1       4.459  -3.229   0.987  1.00  0.00     0.046 C 
ENDBRANCH   1   9
BRANCH   5  17
ATOM     17  C   UNL     1      -1.603   1.272  -1.534  1.00  0.00     0.094 A 
ATOM     18  C   UNL     1      -1.249   2.597  -1.718  1.00  0.00     0.117 A 
ATOM     19  C   UNL     1      -2.868   1.289  -0.873  1.00  0.00     0.096 A 
ATOM     20  O   UNL     1      -2.198   3.416  -1.187  1.00  0.00    -0.442 OA
ATOM     21  C   UNL     1      -3.800   0.349  -0.406  1.00  0.00     0.144 A 
ATOM     22  C   UNL     1      -3.190   2.624  -0.693  1.00  0.00     0.232 A 
ATOM     23  N   UNL     1      -4.943   0.830   0.145  1.00  0.00    -0.215 NA
ATOM     24  N   UNL     1      -4.292   3.125  -0.125  1.00  0.00    -0.198 NA
ATOM     25  C   UNL     1      -5.135   2.162   0.267  1.00  0.00     0.131 A 
ATOM     26  C   UNL     1      -0.103   3.271  -2.363  1.00  0.00     0.088 C 
ATOM     27  C   UNL     1      -6.435   2.602   0.867  1.00  0.00     0.090 C 
BRANCH  21  28
ATOM     28  N   UNL     1      -3.592  -1.028  -0.511  1.00  0.00    -0.351 N 
ATOM     29  C   UNL     1      -2.672  -1.567   0.510  1.00  0.00     0.146 C 
ATOM     30  C   UNL     1      -4.821  -1.840  -0.639  1.00  0.00     0.146 C 
ATOM     31  C   UNL     1      -3.402  -1.868   1.829  1.00  0.00     0.181 C 
ATOM     32  C   UNL     1      -5.456  -2.177   0.722  1.00  0.00     0.181 C 
ATOM     33  O   UNL     1      -4.502  -2.767   1.622  1.00  0.00    -0.378 OA
ENDBRANCH  21  28
ENDBRANCH   5  17
TORSDOF 3
