REMARK SMILES Cc1ccc(CNC(=O)c2c(C)oc3nc(C)nc(N4CCOCC4)c23)cc1
REMARK SMILES IDX 7 1 8 2 9 3 6 5 5 6 2 7 3 8 28 9 4 10 27 11 1 12 10 13 11 14
REMARK SMILES IDX 26 15 13 16 19 17 14 18 18 19 15 20 16 21 12 22 17 23 20 24
REMARK SMILES IDX 21 25 25 26 22 27 24 28 23 29
REMARK H PARENT 7 4
ROOT
ATOM      1  N   UNL     1       0.770  -0.620  -1.760  1.00  0.00    -0.348 N 
ATOM      2  C   UNL     1       0.612  -1.974  -1.618  1.00  0.00     0.255 C 
ATOM      3  O   UNL     1       1.513  -2.767  -1.881  1.00  0.00    -0.269 OA
ATOM      4  H   UNL     1       0.042   0.001  -1.411  1.00  0.00     0.164 HD
ENDROOT
BRANCH   1   5
ATOM      5  C   UNL     1       2.017  -0.027  -2.183  1.00  0.00     0.152 C 
BRANCH   5   6
ATOM      6  C   UNL     1       2.755   0.600  -1.028  1.00  0.00    -0.029 A 
ATOM      7  C   UNL     1       4.124   1.771   1.142  1.00  0.00    -0.051 A 
ATOM      8  C   UNL     1       3.917   0.388   1.097  1.00  0.00     0.004 A 
ATOM      9  C   UNL     1       3.669   2.560   0.080  1.00  0.00     0.004 A 
ATOM     10  C   UNL     1       3.239  -0.191   0.023  1.00  0.00     0.006 A 
ATOM     11  C   UNL     1       2.988   1.981  -0.994  1.00  0.00     0.006 A 
ATOM     12  C   UNL     1       4.884   2.389   2.278  1.00  0.00     0.044 C 
ENDBRANCH   5   6
ENDBRANCH   1   5
BRANCH   2  13
ATOM     13  C   UNL     1      -0.699  -2.428  -1.168  1.00  0.00     0.094 A 
ATOM     14  C   UNL     1      -1.100  -3.757  -1.237  1.00  0.00     0.117 A 
ATOM     15  C   UNL     1      -1.825  -1.726  -0.613  1.00  0.00     0.096 A 
ATOM     16  O   UNL     1      -2.379  -3.900  -0.808  1.00  0.00    -0.442 OA
ATOM     17  C   UNL     1      -2.157  -0.418  -0.226  1.00  0.00     0.144 A 
ATOM     18  C   UNL     1      -2.826  -2.672  -0.445  1.00  0.00     0.232 A 
ATOM     19  N   UNL     1      -3.419  -0.185   0.216  1.00  0.00    -0.215 NA
ATOM     20  N   UNL     1      -4.068  -2.478   0.011  1.00  0.00    -0.198 NA
ATOM     21  C   UNL     1      -4.306  -1.198   0.304  1.00  0.00     0.131 A 
ATOM     22  C   UNL     1      -0.435  -4.999  -1.694  1.00  0.00     0.088 C 
ATOM     23  C   UNL     1      -5.665  -0.862   0.836  1.00  0.00     0.090 C 
BRANCH  17  24
ATOM     24  N   UNL     1      -1.222   0.644  -0.248  1.00  0.00    -0.351 N 
ATOM     25  C   UNL     1      -1.865   1.943  -0.596  1.00  0.00     0.146 C 
ATOM     26  C   UNL     1      -0.554   0.695   1.092  1.00  0.00     0.146 C 
ATOM     27  C   UNL     1      -2.234   2.760   0.653  1.00  0.00     0.181 C 
ATOM     28  C   UNL     1      -0.043   2.113   1.384  1.00  0.00     0.181 C 
ATOM     29  O   UNL     1      -1.100   3.083   1.475  1.00  0.00    -0.378 OA
ENDBRANCH  17  24
ENDBRANCH   2  13
TORSDOF 4
