REMARK SMILES Cc1ccc(NC(=O)C2CCCN(c3ncnc4onc(C)c34)C2)cc1Cl
REMARK SMILES IDX 9 1 10 2 11 3 12 4 13 5 24 6 7 7 6 8 8 9 5 11 2 12 3 13
REMARK SMILES IDX 26 14 4 15 25 16 1 17 27 18 14 19 15 20 23 21 16 22 21 23
REMARK SMILES IDX 18 24 17 25 20 26 19 27 22 28
REMARK H PARENT 6 10
ROOT
ATOM      1  C   UNL     1      -0.175   0.015  -0.186  1.00  0.00     0.098 C 
ATOM      2  C   UNL     1      -0.318   0.895  -1.435  1.00  0.00     0.017 C 
ATOM      3  C   UNL     1      -1.739   1.435  -1.566  1.00  0.00     0.022 C 
ATOM      4  C   UNL     1      -2.769   0.307  -1.552  1.00  0.00     0.118 C 
ATOM      5  N   UNL     1      -2.615  -0.543  -0.364  1.00  0.00    -0.355 N 
ATOM      6  C   UNL     1      -1.253  -1.079  -0.168  1.00  0.00     0.131 C 
ENDROOT
BRANCH   1   7
ATOM      7  C   UNL     1       1.214  -0.616  -0.128  1.00  0.00     0.229 C 
ATOM      8  N   UNL     1       2.205   0.319   0.132  1.00  0.00    -0.326 N 
ATOM      9  O   UNL     1       1.387  -1.815  -0.311  1.00  0.00    -0.274 OA
ATOM     10  H   UNL     1       1.898   1.267   0.309  1.00  0.00     0.169 HD
BRANCH   8  11
ATOM     11  C   UNL     1       3.596   0.099   0.223  1.00  0.00     0.042 A 
ATOM     12  C   UNL     1       6.406  -0.158   0.438  1.00  0.00    -0.032 A 
ATOM     13  C   UNL     1       5.784   1.079   0.640  1.00  0.00     0.007 A 
ATOM     14  C   UNL     1       5.602  -1.264   0.126  1.00  0.00     0.046 A 
ATOM     15  C   UNL     1       4.395   1.205   0.533  1.00  0.00     0.026 A 
ATOM     16  C   UNL     1       4.211  -1.137   0.019  1.00  0.00     0.047 A 
ATOM     17  C   UNL     1       7.900  -0.268   0.559  1.00  0.00     0.046 C 
ATOM     18  Cl  UNL     1       6.293  -2.827  -0.142  1.00  0.00    -0.084 Cl
ENDBRANCH   8  11
ENDBRANCH   1   7
BRANCH   5  19
ATOM     19  C   UNL     1      -3.250  -0.054   0.780  1.00  0.00     0.145 A 
ATOM     20  N   UNL     1      -2.516   0.438   1.812  1.00  0.00    -0.218 NA
ATOM     21  C   UNL     1      -4.644  -0.068   0.941  1.00  0.00     0.107 A 
ATOM     22  C   UNL     1      -3.142   0.924   2.902  1.00  0.00     0.228 A 
ATOM     23  C   UNL     1      -5.794  -0.525   0.247  1.00  0.00     0.094 A 
ATOM     24  C   UNL     1      -5.149   0.471   2.108  1.00  0.00     0.263 A 
ATOM     25  N   UNL     1      -4.456   0.998   3.128  1.00  0.00    -0.199 NA
ATOM     26  N   UNL     1      -6.919  -0.231   0.913  1.00  0.00    -0.082 NA
ATOM     27  O   UNL     1      -6.508   0.389   2.083  1.00  0.00    -0.335 OA
ATOM     28  C   UNL     1      -5.873  -1.254  -1.039  1.00  0.00     0.071 C 
ENDBRANCH   5  19
TORSDOF 3
