REMARK SMILES Cn1nnc2cc(C(=O)Nc3ccc(Cl)cc3)ccc21
REMARK SMILES IDX 8 1 9 2 10 3 7 5 2 6 3 7 20 8 4 9 19 10 5 11 18 12 6 13 1 14
REMARK SMILES IDX 11 15 12 16 17 17 13 18 16 19 14 20 15 21
REMARK H PARENT 10 4
ROOT
ATOM      1  C   UNL     1      -0.770  -0.597  -0.772  1.00  0.00     0.255 C 
ATOM      2  O   UNL     1      -1.181  -1.156  -1.781  1.00  0.00    -0.269 OA
ATOM      3  N   UNL     1      -1.528  -0.058   0.252  1.00  0.00    -0.322 N 
ATOM      4  H   UNL     1      -1.036   0.489   0.946  1.00  0.00     0.170 HD
ENDROOT
BRANCH   1   5
ATOM      5  C   UNL     1       0.701  -0.428  -0.613  1.00  0.00     0.042 A 
ATOM      6  N   UNL     1       4.757   0.097  -0.630  1.00  0.00    -0.248 N 
ATOM      7  N   UNL     1       4.972   0.368  -1.930  1.00  0.00    -0.066 NA
ATOM      8  C   UNL     1       3.430  -0.121  -0.366  1.00  0.00     0.088 A 
ATOM      9  N   UNL     1       3.799   0.323  -2.547  1.00  0.00    -0.130 NA
ATOM     10  C   UNL     1       2.703  -0.431   0.788  1.00  0.00     0.031 A 
ATOM     11  C   UNL     1       2.840   0.025  -1.618  1.00  0.00     0.113 A 
ATOM     12  C   UNL     1       1.319  -0.586   0.638  1.00  0.00     0.016 A 
ATOM     13  C   UNL     1       1.456  -0.136  -1.759  1.00  0.00     0.046 A 
ATOM     14  C   UNL     1       5.874   0.070   0.276  1.00  0.00     0.176 C 
ENDBRANCH   1   5
BRANCH   3  15
ATOM     15  C   UNL     1      -2.931  -0.103   0.390  1.00  0.00     0.041 A 
ATOM     16  C   UNL     1      -3.778  -0.800  -0.474  1.00  0.00     0.027 A 
ATOM     17  C   UNL     1      -3.490   0.592   1.472  1.00  0.00     0.027 A 
ATOM     18  C   UNL     1      -5.163  -0.800  -0.266  1.00  0.00     0.022 A 
ATOM     19  C   UNL     1      -4.872   0.593   1.682  1.00  0.00     0.022 A 
ATOM     20  C   UNL     1      -5.704  -0.104   0.811  1.00  0.00     0.041 A 
ATOM     21  Cl  UNL     1      -7.404  -0.105   1.067  1.00  0.00    -0.084 Cl
ENDBRANCH   3  15
TORSDOF 2
