REMARK SMILES CCc1ccc(NC(=O)c2ccc3c(c2)nnn3CC)cc1
REMARK SMILES IDX 7 1 8 2 9 3 6 5 3 6 4 7 22 8 5 9 21 10 2 11 1 12 10 13 11 14
REMARK SMILES IDX 15 15 12 16 14 17 13 18 16 19 18 20 17 21 19 22 20 23
REMARK H PARENT 7 4
ROOT
ATOM      1  N   UNL     1      -0.903  -0.189   0.067  1.00  0.00    -0.322 N 
ATOM      2  C   UNL     1      -0.003   0.636  -0.583  1.00  0.00     0.255 C 
ATOM      3  O   UNL     1      -0.265   1.572  -1.328  1.00  0.00    -0.269 OA
ATOM      4  H   UNL     1      -0.529  -0.835   0.751  1.00  0.00     0.170 HD
ENDROOT
BRANCH   1   5
ATOM      5  C   UNL     1      -2.309  -0.181  -0.048  1.00  0.00     0.041 A 
ATOM      6  C   UNL     1      -5.127  -0.303  -0.168  1.00  0.00    -0.048 A 
ATOM      7  C   UNL     1      -4.419  -1.123   0.715  1.00  0.00     0.006 A 
ATOM      8  C   UNL     1      -4.414   0.582  -0.983  1.00  0.00     0.006 A 
ATOM      9  C   UNL     1      -3.023  -1.065   0.771  1.00  0.00     0.026 A 
ATOM     10  C   UNL     1      -3.016   0.639  -0.926  1.00  0.00     0.026 A 
BRANCH   6  11
ATOM     11  C   UNL     1      -6.633  -0.349  -0.220  1.00  0.00     0.032 C 
ATOM     12  C   UNL     1      -7.263   0.630   0.758  1.00  0.00     0.009 C 
ENDBRANCH   6  11
ENDBRANCH   1   5
BRANCH   2  13
ATOM     13  C   UNL     1       1.432   0.355  -0.291  1.00  0.00     0.042 A 
ATOM     14  C   UNL     1       2.322   1.441  -0.243  1.00  0.00     0.016 A 
ATOM     15  C   UNL     1       1.893  -0.958  -0.101  1.00  0.00     0.046 A 
ATOM     16  C   UNL     1       3.686   1.260   0.022  1.00  0.00     0.031 A 
ATOM     17  C   UNL     1       3.255  -1.148   0.169  1.00  0.00     0.113 A 
ATOM     18  C   UNL     1       4.111  -0.055   0.228  1.00  0.00     0.089 A 
ATOM     19  N   UNL     1       3.959  -2.299   0.400  1.00  0.00    -0.130 NA
ATOM     20  N   UNL     1       5.324  -0.632   0.499  1.00  0.00    -0.245 N 
ATOM     21  N   UNL     1       5.228  -1.971   0.606  1.00  0.00    -0.066 NA
BRANCH  20  22
ATOM     22  C   UNL     1       6.606   0.014   0.670  1.00  0.00     0.143 C 
ATOM     23  C   UNL     1       7.368   0.132  -0.638  1.00  0.00     0.029 C 
ENDBRANCH  20  22
ENDBRANCH   2  13
TORSDOF 4
