REMARK SMILES Cc1ccc(NC(=O)N2CCN(c3nnc(C)c4c(C)n(-c5ccccc5)nc34)CC2)cc1Cl
REMARK SMILES IDX 6 1 7 2 8 3 9 4 10 5 11 6 12 7 30 8 31 9 5 11 2 12 3 13
REMARK SMILES IDX 33 14 4 15 32 16 1 17 34 18 13 19 14 20 29 21 15 22 28 23
REMARK SMILES IDX 18 24 16 25 21 26 19 27 17 28 20 29 22 30 23 31 27 32 24 33
REMARK SMILES IDX 26 34 25 35
REMARK H PARENT 6 10
ROOT
ATOM      1  N   UNL     1       4.262  -0.016  -0.474  1.00  0.00    -0.308 N 
ATOM      2  C   UNL     1       3.747  -0.713   0.597  1.00  0.00     0.321 C 
ATOM      3  O   UNL     1       4.315  -1.642   1.164  1.00  0.00    -0.248 OA
ATOM      4  N   UNL     1       2.502  -0.263   1.020  1.00  0.00    -0.321 N 
ATOM      5  C   UNL     1       1.605   0.599   0.238  1.00  0.00     0.143 C 
ATOM      6  C   UNL     1       0.113   0.408   0.574  1.00  0.00     0.140 C 
ATOM      7  N   UNL     1      -0.123   0.546   2.011  1.00  0.00    -0.350 N 
ATOM      8  C   UNL     1       0.924   0.087   2.936  1.00  0.00     0.140 C 
ATOM      9  C   UNL     1       1.934  -0.843   2.240  1.00  0.00     0.143 C 
ATOM     10  H   UNL     1       3.877   0.906  -0.609  1.00  0.00     0.171 HD
ENDROOT
BRANCH   1  11
ATOM     11  C   UNL     1       5.424  -0.316  -1.215  1.00  0.00     0.044 A 
ATOM     12  C   UNL     1       7.721  -0.775  -2.799  1.00  0.00    -0.032 A 
ATOM     13  C   UNL     1       7.022   0.436  -2.887  1.00  0.00     0.007 A 
ATOM     14  C   UNL     1       7.249  -1.754  -1.913  1.00  0.00     0.046 A 
ATOM     15  C   UNL     1       5.884   0.660  -2.106  1.00  0.00     0.026 A 
ATOM     16  C   UNL     1       6.110  -1.528  -1.130  1.00  0.00     0.047 A 
ATOM     17  C   UNL     1       8.941  -0.991  -3.650  1.00  0.00     0.046 C 
ATOM     18  Cl  UNL     1       8.047  -3.281  -1.757  1.00  0.00    -0.084 Cl
ENDBRANCH   1  11
BRANCH   7  19
ATOM     19  C   UNL     1      -1.421   0.608   2.506  1.00  0.00     0.179 A 
ATOM     20  N   UNL     1      -1.658   0.691   3.858  1.00  0.00    -0.130 NA
ATOM     21  C   UNL     1      -2.653   0.616   1.761  1.00  0.00     0.139 A 
ATOM     22  N   UNL     1      -2.974   0.777   4.491  1.00  0.00    -0.153 NA
ATOM     23  N   UNL     1      -2.861   0.565   0.432  1.00  0.00    -0.164 NA
ATOM     24  C   UNL     1      -3.941   0.702   2.418  1.00  0.00     0.050 A 
ATOM     25  C   UNL     1      -4.150   0.788   3.805  1.00  0.00     0.071 A 
ATOM     26  N   UNL     1      -4.203   0.471   0.250  1.00  0.00    -0.237 N 
ATOM     27  C   UNL     1      -4.902   0.732   1.426  1.00  0.00     0.051 A 
ATOM     28  C   UNL     1      -5.416   0.878   4.583  1.00  0.00     0.069 C 
ATOM     29  C   UNL     1      -6.357   1.030   1.490  1.00  0.00     0.067 C 
BRANCH  26  30
ATOM     30  C   UNL     1      -4.685   0.132  -1.053  1.00  0.00     0.065 A 
ATOM     31  C   UNL     1      -5.963  -0.402  -1.260  1.00  0.00     0.028 A 
ATOM     32  C   UNL     1      -3.830   0.289  -2.158  1.00  0.00     0.028 A 
ATOM     33  C   UNL     1      -6.390  -0.733  -2.551  1.00  0.00     0.002 A 
ATOM     34  C   UNL     1      -4.262  -0.040  -3.445  1.00  0.00     0.002 A 
ATOM     35  C   UNL     1      -5.544  -0.546  -3.641  1.00  0.00     0.000 A 
ENDBRANCH  26  30
ENDBRANCH   7  19
TORSDOF 3
