REMARK SMILES Cc1nnc(N2CCN(C(=O)Nc3cccc(C(F)(F)F)c3)CC2)c2nn(-c3ccccc3)c(C)c12
REMARK SMILES IDX 6 1 7 2 8 3 9 4 10 5 11 6 12 7 23 8 24 9 5 11 2 12 3 13
REMARK SMILES IDX 36 14 4 15 34 16 25 17 27 18 26 19 1 20 35 21 28 22 29 23
REMARK SMILES IDX 33 24 30 25 32 26 31 27 13 28 14 29 22 30 15 31 17 32 16 33
REMARK SMILES IDX 18 34 19 35 20 36 21 37
REMARK H PARENT 12 10
ROOT
ATOM      1  N   UNL     1      -0.386   0.870   1.685  1.00  0.00    -0.350 N 
ATOM      2  C   UNL     1       0.576   0.673   2.778  1.00  0.00     0.140 C 
ATOM      3  C   UNL     1       1.772  -0.192   2.339  1.00  0.00     0.143 C 
ATOM      4  N   UNL     1       2.423   0.304   1.124  1.00  0.00    -0.321 N 
ATOM      5  C   UNL     1       3.758  -0.023   0.914  1.00  0.00     0.321 C 
ATOM      6  O   UNL     1       4.351  -0.790   1.667  1.00  0.00    -0.248 OA
ATOM      7  N   UNL     1       4.323   0.600  -0.177  1.00  0.00    -0.308 N 
ATOM      8  C   UNL     1       1.543   0.937   0.133  1.00  0.00     0.143 C 
ATOM      9  C   UNL     1       0.052   0.591   0.318  1.00  0.00     0.140 C 
ATOM     10  H   UNL     1       3.855   1.438  -0.481  1.00  0.00     0.171 HD
ENDROOT
BRANCH   1  11
ATOM     11  C   UNL     1      -1.736   0.818   2.014  1.00  0.00     0.179 A 
ATOM     12  C   UNL     1      -4.615   0.789   2.952  1.00  0.00     0.071 A 
ATOM     13  N   UNL     1      -3.547   1.020   3.764  1.00  0.00    -0.153 NA
ATOM     14  C   UNL     1      -4.216   0.564   1.623  1.00  0.00     0.050 A 
ATOM     15  N   UNL     1      -2.157   1.033   3.304  1.00  0.00    -0.130 NA
ATOM     16  C   UNL     1      -5.035   0.344   0.531  1.00  0.00     0.051 A 
ATOM     17  C   UNL     1      -2.851   0.571   1.137  1.00  0.00     0.139 A 
ATOM     18  N   UNL     1      -4.160   0.036  -0.508  1.00  0.00    -0.237 N 
ATOM     19  N   UNL     1      -2.875   0.330  -0.187  1.00  0.00    -0.164 NA
ATOM     20  C   UNL     1      -5.974   0.804   3.558  1.00  0.00     0.069 C 
ATOM     21  C   UNL     1      -6.511   0.449   0.386  1.00  0.00     0.067 C 
BRANCH  18  22
ATOM     22  C   UNL     1      -4.424  -0.522  -1.799  1.00  0.00     0.065 A 
ATOM     23  C   UNL     1      -3.455  -0.387  -2.809  1.00  0.00     0.028 A 
ATOM     24  C   UNL     1      -5.592  -1.243  -2.076  1.00  0.00     0.028 A 
ATOM     25  C   UNL     1      -3.672  -0.926  -4.080  1.00  0.00     0.002 A 
ATOM     26  C   UNL     1      -5.803  -1.782  -3.349  1.00  0.00     0.002 A 
ATOM     27  C   UNL     1      -4.848  -1.619  -4.351  1.00  0.00     0.000 A 
ENDBRANCH  18  22
ENDBRANCH   1  11
BRANCH   7  28
ATOM     28  C   UNL     1       5.600   0.371  -0.728  1.00  0.00     0.043 A 
ATOM     29  C   UNL     1       6.060   1.285  -1.684  1.00  0.00     0.026 A 
ATOM     30  C   UNL     1       6.406  -0.720  -0.394  1.00  0.00     0.039 A 
ATOM     31  C   UNL     1       7.311   1.124  -2.281  1.00  0.00     0.003 A 
ATOM     32  C   UNL     1       7.666  -0.899  -0.994  1.00  0.00     0.058 A 
ATOM     33  C   UNL     1       8.114   0.039  -1.935  1.00  0.00     0.013 A 
BRANCH  32  34
ATOM     34  C   UNL     1       8.528  -2.073  -0.601  1.00  0.00     0.416 C 
ATOM     35  F   UNL     1       9.497  -2.356  -1.519  1.00  0.00    -0.166 F 
ATOM     36  F   UNL     1       9.183  -1.869   0.575  1.00  0.00    -0.166 F 
ATOM     37  F   UNL     1       7.823  -3.228  -0.446  1.00  0.00    -0.166 F 
ENDBRANCH  32  34
ENDBRANCH   7  28
TORSDOF 4
