REMARK SMILES Cc1nnc(N2CCN(C(=O)Nc3cc(F)ccc3F)CC2)c2nn(-c3ccc(Cl)cc3)c(C)c12
REMARK SMILES IDX 1 1 2 2 3 3 4 4 5 5 23 6 24 7 25 8 33 9 34 10 35 11 6 12
REMARK SMILES IDX 7 13 22 14 8 15 21 16 9 17 10 18 11 19 12 20 13 22 14 23
REMARK SMILES IDX 19 24 15 25 18 26 17 27 20 28 16 29 26 30 27 31 32 32 28 33
REMARK SMILES IDX 31 34 29 35 30 36
REMARK H PARENT 12 21
ROOT
ATOM      1  C   UNL     1      -5.161  -1.865   3.324  1.00  0.00     0.069 C 
ATOM      2  C   UNL     1      -3.889  -1.522   2.632  1.00  0.00     0.071 A 
ATOM      3  N   UNL     1      -2.718  -1.743   3.293  1.00  0.00    -0.153 NA
ATOM      4  N   UNL     1      -1.397  -1.450   2.737  1.00  0.00    -0.130 NA
ATOM      5  C   UNL     1      -1.151  -0.933   1.488  1.00  0.00     0.179 A 
ATOM      6  C   UNL     1      -2.375  -0.681   0.776  1.00  0.00     0.139 A 
ATOM      7  N   UNL     1      -2.569  -0.183  -0.459  1.00  0.00    -0.164 NA
ATOM      8  N   UNL     1      -3.908  -0.024  -0.609  1.00  0.00    -0.237 N 
ATOM      9  C   UNL     1      -4.620  -0.665   0.402  1.00  0.00     0.051 A 
ATOM     10  C   UNL     1      -6.076  -0.959   0.351  1.00  0.00     0.067 C 
ATOM     11  C   UNL     1      -3.669  -0.977   1.355  1.00  0.00     0.050 A 
ENDROOT
BRANCH   5  12
ATOM     12  N   UNL     1       0.144  -0.682   1.051  1.00  0.00    -0.350 N 
ATOM     13  C   UNL     1       0.415  -0.635  -0.392  1.00  0.00     0.140 C 
ATOM     14  C   UNL     1       1.243  -1.040   1.946  1.00  0.00     0.140 C 
ATOM     15  C   UNL     1       1.850  -1.081  -0.734  1.00  0.00     0.143 C 
ATOM     16  C   UNL     1       2.527  -0.297   1.530  1.00  0.00     0.143 C 
ATOM     17  N   UNL     1       2.872  -0.455   0.110  1.00  0.00    -0.321 N 
ATOM     18  C   UNL     1       4.133  -0.238  -0.432  1.00  0.00     0.322 C 
ATOM     19  O   UNL     1       4.416  -0.618  -1.564  1.00  0.00    -0.248 OA
ATOM     20  N   UNL     1       4.998   0.432   0.401  1.00  0.00    -0.305 N 
ATOM     21  H   UNL     1       4.585   0.935   1.173  1.00  0.00     0.171 HD
BRANCH  20  22
ATOM     22  C   UNL     1       6.366   0.708   0.184  1.00  0.00     0.081 A 
ATOM     23  C   UNL     1       7.127   0.160  -0.849  1.00  0.00     0.068 A 
ATOM     24  C   UNL     1       6.993   1.576   1.091  1.00  0.00     0.146 A 
ATOM     25  C   UNL     1       8.477   0.494  -0.962  1.00  0.00     0.125 A 
ATOM     26  C   UNL     1       8.341   1.909   0.976  1.00  0.00     0.044 A 
ATOM     27  C   UNL     1       9.089   1.363  -0.062  1.00  0.00     0.042 A 
ATOM     28  F   UNL     1       6.279   2.104   2.098  1.00  0.00    -0.205 F 
ATOM     29  F   UNL     1       9.204  -0.035  -1.954  1.00  0.00    -0.207 F 
ENDBRANCH  20  22
ENDBRANCH   5  12
BRANCH   8  30
ATOM     30  C   UNL     1      -4.374   0.741  -1.725  1.00  0.00     0.065 A 
ATOM     31  C   UNL     1      -3.501   0.973  -2.804  1.00  0.00     0.030 A 
ATOM     32  C   UNL     1      -5.653   1.312  -1.758  1.00  0.00     0.030 A 
ATOM     33  C   UNL     1      -3.914   1.723  -3.909  1.00  0.00     0.023 A 
ATOM     34  C   UNL     1      -6.063   2.064  -2.866  1.00  0.00     0.023 A 
ATOM     35  C   UNL     1      -5.196   2.262  -3.938  1.00  0.00     0.041 A 
ATOM     36  Cl  UNL     1      -5.708   3.187  -5.293  1.00  0.00    -0.084 Cl
ENDBRANCH   8  30
TORSDOF 3
