REMARK SMILES Cc1ccc(C)c(N2CCN(C(=O)CCc3c(C)nn(-c4ccc(N5CCCC5)nn4)c3C)CC2)c1
REMARK SMILES IDX 14 1 12 2 8 3 9 4 35 5 10 6 34 7 11 8 13 9 7 10 2 11 3 12
REMARK SMILES IDX 36 13 4 14 5 15 1 16 6 17 15 18 16 19 17 20 32 21 19 22
REMARK SMILES IDX 20 23 18 24 33 25 21 26 22 27 31 28 23 29 30 30 24 31 25 32
REMARK SMILES IDX 26 33 29 34 27 35 28 36
REMARK H PARENT
ROOT
ATOM      1  C   UNL     1      -0.850   0.727  -1.544  1.00  0.00     0.105 C 
ENDROOT
BRANCH   1   2
ATOM      2  C   UNL     1      -2.225   0.426  -2.113  1.00  0.00     0.223 C 
ATOM      3  N   UNL     1      -5.317  -0.763   0.656  1.00  0.00    -0.368 N 
ATOM      4  C   UNL     1      -4.399   0.340   1.016  1.00  0.00     0.138 C 
ATOM      5  C   UNL     1      -5.280  -1.193  -0.762  1.00  0.00     0.138 C 
ATOM      6  C   UNL     1      -3.063   0.209   0.266  1.00  0.00     0.141 C 
ATOM      7  C   UNL     1      -4.572  -0.181  -1.680  1.00  0.00     0.141 C 
ATOM      8  N   UNL     1      -3.234   0.181  -1.195  1.00  0.00    -0.339 N 
ATOM      9  O   UNL     1      -2.429   0.414  -3.326  1.00  0.00    -0.275 OA
BRANCH   3  10
ATOM     10  C   UNL     1      -6.607  -0.561   1.187  1.00  0.00     0.040 A 
ATOM     11  C   UNL     1      -8.801   0.529   1.126  1.00  0.00    -0.049 A 
ATOM     12  C   UNL     1      -9.153  -0.129   2.306  1.00  0.00     0.004 A 
ATOM     13  C   UNL     1      -7.525   0.318   0.585  1.00  0.00     0.029 A 
ATOM     14  C   UNL     1      -8.254  -1.002   2.919  1.00  0.00     0.006 A 
ATOM     15  C   UNL     1      -6.984  -1.231   2.368  1.00  0.00    -0.028 A 
ATOM     16  C   UNL     1      -9.748   1.497   0.481  1.00  0.00     0.044 C 
ATOM     17  C   UNL     1      -6.042  -2.182   3.053  1.00  0.00     0.046 C 
ENDBRANCH   3  10
ENDBRANCH   1   2
BRANCH   1  18
ATOM     18  C   UNL     1       0.209   0.812  -2.643  1.00  0.00     0.049 C 
BRANCH  18  19
ATOM     19  C   UNL     1       1.564   1.119  -2.089  1.00  0.00    -0.003 A 
ATOM     20  C   UNL     1       2.182   2.389  -1.995  1.00  0.00     0.063 A 
ATOM     21  C   UNL     1       2.489   0.236  -1.551  1.00  0.00     0.046 A 
ATOM     22  N   UNL     1       3.392   2.317  -1.440  1.00  0.00    -0.171 NA
ATOM     23  N   UNL     1       3.592   0.995  -1.170  1.00  0.00    -0.217 N 
ATOM     24  C   UNL     1       1.642   3.703  -2.428  1.00  0.00     0.069 C 
ATOM     25  C   UNL     1       2.401  -1.241  -1.381  1.00  0.00     0.067 C 
BRANCH  23  26
ATOM     26  C   UNL     1       4.812   0.562  -0.567  1.00  0.00     0.176 A 
ATOM     27  C   UNL     1       5.800   1.485  -0.262  1.00  0.00     0.055 A 
ATOM     28  N   UNL     1       4.997  -0.742  -0.291  1.00  0.00    -0.129 NA
ATOM     29  C   UNL     1       6.985   1.038   0.327  1.00  0.00     0.053 A 
ATOM     30  N   UNL     1       6.175  -1.170   0.297  1.00  0.00    -0.131 NA
ATOM     31  C   UNL     1       7.175  -0.312   0.598  1.00  0.00     0.151 A 
BRANCH  31  32
ATOM     32  N   UNL     1       8.327  -0.780   1.194  1.00  0.00    -0.355 N 
ATOM     33  C   UNL     1       8.482  -2.218   1.385  1.00  0.00     0.118 C 
ATOM     34  C   UNL     1       9.619  -0.118   1.048  1.00  0.00     0.118 C 
ATOM     35  C   UNL     1       9.909  -2.339   1.910  1.00  0.00     0.023 C 
ATOM     36  C   UNL     1      10.639  -1.256   1.131  1.00  0.00     0.023 C 
ENDBRANCH  31  32
ENDBRANCH  23  26
ENDBRANCH  18  19
ENDBRANCH   1  18
TORSDOF 6
