REMARK SMILES Cc1nn(-c2ccc(N3CCCC3)nn2)c(C)c1CCC(=O)Nc1ccc(F)c(Cl)c1
REMARK SMILES IDX 19 1 18 2 2 3 3 4 4 5 16 6 1 7 17 8 5 9 6 10 15 11 7 12
REMARK SMILES IDX 14 13 8 14 9 15 10 16 13 17 11 18 12 19 20 20 21 21 22 22
REMARK SMILES IDX 23 23 24 25 25 26 31 27 26 28 29 29 27 30 30 31 28 32
REMARK H PARENT 23 24
ROOT
ATOM      1  C   UNL     1       2.459  -1.510  -0.002  1.00  0.00     0.049 C 
ENDROOT
BRANCH   1   2
ATOM      2  C   UNL     1       0.994  -1.455   0.293  1.00  0.00    -0.003 A 
ATOM      3  C   UNL     1       0.333  -1.987   1.424  1.00  0.00     0.063 A 
ATOM      4  N   UNL     1      -0.968  -1.714   1.408  1.00  0.00    -0.171 NA
ATOM      5  N   UNL     1      -1.212  -1.106   0.215  1.00  0.00    -0.217 N 
ATOM      6  C   UNL     1      -0.009  -0.843  -0.449  1.00  0.00     0.046 A 
ATOM      7  C   UNL     1       0.918  -2.735   2.565  1.00  0.00     0.069 C 
ATOM      8  C   UNL     1       0.140  -0.021  -1.679  1.00  0.00     0.067 C 
BRANCH   5   9
ATOM      9  C   UNL     1      -2.572  -0.837  -0.153  1.00  0.00     0.176 A 
ATOM     10  C   UNL     1      -2.950  -0.519  -1.445  1.00  0.00     0.055 A 
ATOM     11  N   UNL     1      -3.516  -0.937   0.806  1.00  0.00    -0.129 NA
ATOM     12  C   UNL     1      -4.302  -0.271  -1.722  1.00  0.00     0.053 A 
ATOM     13  N   UNL     1      -4.853  -0.688   0.516  1.00  0.00    -0.131 NA
ATOM     14  C   UNL     1      -5.260  -0.341  -0.720  1.00  0.00     0.151 A 
BRANCH  14  15
ATOM     15  N   UNL     1      -6.597  -0.117  -0.971  1.00  0.00    -0.355 N 
ATOM     16  C   UNL     1      -7.532  -0.160   0.149  1.00  0.00     0.118 C 
ATOM     17  C   UNL     1      -7.067   0.774  -2.025  1.00  0.00     0.118 C 
ATOM     18  C   UNL     1      -8.843   0.290  -0.487  1.00  0.00     0.023 C 
ATOM     19  C   UNL     1      -8.382   1.340  -1.485  1.00  0.00     0.023 C 
ENDBRANCH  14  15
ENDBRANCH   5   9
ENDBRANCH   1   2
BRANCH   1  20
ATOM     20  C   UNL     1       3.212  -0.345   0.638  1.00  0.00     0.105 C 
BRANCH  20  21
ATOM     21  C   UNL     1       4.695  -0.389   0.320  1.00  0.00     0.224 C 
ATOM     22  O   UNL     1       5.182  -1.252  -0.400  1.00  0.00    -0.275 OA
ATOM     23  N   UNL     1       5.376   0.651   0.935  1.00  0.00    -0.326 N 
ATOM     24  H   UNL     1       4.820   1.281   1.501  1.00  0.00     0.169 HD
BRANCH  23  25
ATOM     25  C   UNL     1       6.757   0.933   0.866  1.00  0.00     0.042 A 
ATOM     26  C   UNL     1       7.675   0.172   0.137  1.00  0.00     0.029 A 
ATOM     27  C   UNL     1       7.216   2.050   1.580  1.00  0.00     0.049 A 
ATOM     28  C   UNL     1       9.031   0.518   0.119  1.00  0.00     0.043 A 
ATOM     29  C   UNL     1       8.570   2.394   1.560  1.00  0.00     0.078 A 
ATOM     30  C   UNL     1       9.471   1.627   0.830  1.00  0.00     0.141 A 
ATOM     31  Cl  UNL     1       9.104   3.771   2.446  1.00  0.00    -0.081 Cl
ATOM     32  F   UNL     1      10.775   1.940   0.798  1.00  0.00    -0.205 F 
ENDBRANCH  23  25
ENDBRANCH  20  21
ENDBRANCH   1  20
TORSDOF 6
