REMARK SMILES COc1ccc(CNC(=O)CCc2c(C)nn(-c3ccc(N4CCOCC4)nn3)c2C)cc1
REMARK SMILES IDX 8 1 9 2 10 3 7 5 6 6 3 7 4 8 33 9 5 10 32 11 2 12 1 13 11 14
REMARK SMILES IDX 12 15 13 16 14 17 30 18 16 19 17 20 15 21 31 22 18 23 19 24
REMARK SMILES IDX 29 25 20 26 28 27 21 28 22 29 23 30 27 31 24 32 26 33 25 34
REMARK H PARENT 8 4
ROOT
ATOM      1  N   UNL     1       2.109  -2.396   2.253  1.00  0.00    -0.352 N 
ATOM      2  C   UNL     1       1.760  -3.528   2.950  1.00  0.00     0.220 C 
ATOM      3  O   UNL     1       1.576  -3.549   4.163  1.00  0.00    -0.275 OA
ATOM      4  H   UNL     1       1.999  -2.398   1.246  1.00  0.00     0.163 HD
ENDROOT
BRANCH   1   5
ATOM      5  C   UNL     1       2.157  -1.108   2.905  1.00  0.00     0.151 C 
BRANCH   5   6
ATOM      6  C   UNL     1       2.422  -0.019   1.900  1.00  0.00    -0.029 A 
ATOM      7  C   UNL     1       2.905   1.949  -0.060  1.00  0.00     0.118 A 
ATOM      8  C   UNL     1       3.947   1.144   0.400  1.00  0.00     0.047 A 
ATOM      9  C   UNL     1       1.623   1.767   0.463  1.00  0.00     0.047 A 
ATOM     10  C   UNL     1       3.706   0.164   1.371  1.00  0.00     0.009 A 
ATOM     11  C   UNL     1       1.381   0.793   1.435  1.00  0.00     0.009 A 
BRANCH   7  12
ATOM     12  O   UNL     1       3.003   2.932  -1.005  1.00  0.00    -0.497 OA
ATOM     13  C   UNL     1       4.295   3.175  -1.547  1.00  0.00     0.278 C 
ENDBRANCH   7  12
ENDBRANCH   5   6
ENDBRANCH   1   5
BRANCH   2  14
ATOM     14  C   UNL     1       1.606  -4.765   2.090  1.00  0.00     0.105 C 
BRANCH  14  15
ATOM     15  C   UNL     1       0.192  -4.902   1.528  1.00  0.00     0.049 C 
BRANCH  15  16
ATOM     16  C   UNL     1      -0.137  -3.857   0.507  1.00  0.00    -0.003 A 
ATOM     17  C   UNL     1       0.265  -3.828  -0.851  1.00  0.00     0.063 A 
ATOM     18  C   UNL     1      -0.874  -2.693   0.680  1.00  0.00     0.046 A 
ATOM     19  N   UNL     1      -0.125  -2.710  -1.462  1.00  0.00    -0.171 NA
ATOM     20  N   UNL     1      -0.803  -1.994  -0.521  1.00  0.00    -0.217 N 
ATOM     21  C   UNL     1       1.056  -4.839  -1.598  1.00  0.00     0.069 C 
ATOM     22  C   UNL     1      -1.594  -2.194   1.886  1.00  0.00     0.067 C 
BRANCH  20  23
ATOM     23  C   UNL     1      -1.294  -0.688  -0.827  1.00  0.00     0.176 A 
ATOM     24  C   UNL     1      -1.072  -0.139  -2.079  1.00  0.00     0.055 A 
ATOM     25  N   UNL     1      -1.939   0.021   0.119  1.00  0.00    -0.129 NA
ATOM     26  C   UNL     1      -1.525   1.157  -2.338  1.00  0.00     0.053 A 
ATOM     27  N   UNL     1      -2.377   1.305  -0.150  1.00  0.00    -0.131 NA
ATOM     28  C   UNL     1      -2.197   1.880  -1.359  1.00  0.00     0.151 A 
BRANCH  28  29
ATOM     29  N   UNL     1      -2.625   3.184  -1.586  1.00  0.00    -0.351 N 
ATOM     30  C   UNL     1      -3.195   3.888  -0.425  1.00  0.00     0.146 C 
ATOM     31  C   UNL     1      -3.223   3.531  -2.887  1.00  0.00     0.146 C 
ATOM     32  C   UNL     1      -3.553   5.327  -0.831  1.00  0.00     0.181 C 
ATOM     33  C   UNL     1      -4.583   4.226  -2.697  1.00  0.00     0.181 C 
ATOM     34  O   UNL     1      -4.518   5.410  -1.892  1.00  0.00    -0.378 OA
ENDBRANCH  28  29
ENDBRANCH  20  23
ENDBRANCH  15  16
ENDBRANCH  14  15
ENDBRANCH   2  14
TORSDOF 8
