REMARK SMILES Cc1cc(C)cc(NC(=O)CCc2c(C)nn(-c3ccc(N4CCOCC4)nn3)c2C)c1
REMARK SMILES IDX 11 1 9 2 8 3 10 4 7 6 2 7 3 8 32 9 4 10 6 11 1 12 5 13 12 14
REMARK SMILES IDX 13 15 14 16 30 17 16 18 17 19 15 20 31 21 18 22 19 23 29 24
REMARK SMILES IDX 20 25 28 26 21 27 22 28 23 29 27 30 24 31 26 32 25 33
REMARK H PARENT 8 5
ROOT
ATOM      1  C   UNL     1       2.361   0.045   0.645  1.00  0.00     0.105 C 
ENDROOT
BRANCH   1   2
ATOM      2  C   UNL     1       3.768   0.613   0.613  1.00  0.00     0.224 C 
ATOM      3  N   UNL     1       4.585  -0.118  -0.236  1.00  0.00    -0.326 N 
ATOM      4  O   UNL     1       4.089   1.590   1.278  1.00  0.00    -0.275 OA
ATOM      5  H   UNL     1       4.159  -0.903  -0.711  1.00  0.00     0.169 HD
BRANCH   3   6
ATOM      6  C   UNL     1       5.950   0.102  -0.522  1.00  0.00     0.041 A 
ATOM      7  C   UNL     1       7.910  -0.634  -1.777  1.00  0.00    -0.049 A 
ATOM      8  C   UNL     1       8.657   0.397  -1.200  1.00  0.00     0.007 A 
ATOM      9  C   UNL     1       6.562  -0.782  -1.420  1.00  0.00     0.029 A 
ATOM     10  C   UNL     1       8.067   1.280  -0.289  1.00  0.00    -0.049 A 
ATOM     11  C   UNL     1       6.708   1.134   0.032  1.00  0.00     0.029 A 
ATOM     12  C   UNL     1       8.558  -1.604  -2.721  1.00  0.00     0.044 C 
ATOM     13  C   UNL     1       8.861   2.412   0.296  1.00  0.00     0.044 C 
ENDBRANCH   3   6
ENDBRANCH   1   2
BRANCH   1  14
ATOM     14  C   UNL     1       1.438   0.867   1.541  1.00  0.00     0.049 C 
BRANCH  14  15
ATOM     15  C   UNL     1       0.057   0.293   1.593  1.00  0.00    -0.003 A 
ATOM     16  C   UNL     1      -0.470  -0.577   2.578  1.00  0.00     0.063 A 
ATOM     17  C   UNL     1      -0.985   0.486   0.699  1.00  0.00     0.046 A 
ATOM     18  N   UNL     1      -1.736  -0.912   2.324  1.00  0.00    -0.171 NA
ATOM     19  N   UNL     1      -2.062  -0.256   1.175  1.00  0.00    -0.217 N 
ATOM     20  C   UNL     1       0.211  -1.114   3.783  1.00  0.00     0.069 C 
ATOM     21  C   UNL     1      -1.028   1.308  -0.542  1.00  0.00     0.067 C 
BRANCH  19  22
ATOM     22  C   UNL     1      -3.372  -0.392   0.619  1.00  0.00     0.176 A 
ATOM     23  C   UNL     1      -4.314  -1.187   1.253  1.00  0.00     0.055 A 
ATOM     24  N   UNL     1      -3.684   0.247  -0.524  1.00  0.00    -0.129 NA
ATOM     25  C   UNL     1      -5.588  -1.303   0.691  1.00  0.00     0.053 A 
ATOM     26  N   UNL     1      -4.949   0.118  -1.072  1.00  0.00    -0.131 NA
ATOM     27  C   UNL     1      -5.909  -0.626  -0.480  1.00  0.00     0.151 A 
BRANCH  27  28
ATOM     28  N   UNL     1      -7.168  -0.747  -1.064  1.00  0.00    -0.351 N 
ATOM     29  C   UNL     1      -7.331  -0.090  -2.372  1.00  0.00     0.146 C 
ATOM     30  C   UNL     1      -8.361  -0.722  -0.198  1.00  0.00     0.146 C 
ATOM     31  C   UNL     1      -8.752  -0.349  -2.896  1.00  0.00     0.181 C 
ATOM     32  C   UNL     1      -9.368   0.336  -0.681  1.00  0.00     0.181 C 
ATOM     33  O   UNL     1      -9.791   0.151  -2.039  1.00  0.00    -0.378 OA
ENDBRANCH  27  28
ENDBRANCH  19  22
ENDBRANCH  14  15
ENDBRANCH   1  14
TORSDOF 6
