REMARK SMILES Cc1ccccc1NC(=O)CCc1c(C)nn(-c2ccc(N3CCOCC3)nn2)c1C
REMARK SMILES IDX 11 1 9 2 8 3 10 4 7 6 2 7 3 8 4 9 6 10 5 11 1 12 12 13 13 14
REMARK SMILES IDX 14 15 30 16 16 17 17 18 15 19 31 20 18 21 19 22 29 23 20 24
REMARK SMILES IDX 28 25 21 26 22 27 23 28 27 29 24 30 26 31 25 32
REMARK H PARENT 8 5
ROOT
ATOM      1  C   UNL     1      -2.946   3.089   1.615  1.00  0.00     0.105 C 
ENDROOT
BRANCH   1   2
ATOM      2  C   UNL     1      -3.854   1.984   2.121  1.00  0.00     0.224 C 
ATOM      3  N   UNL     1      -3.647   0.780   1.472  1.00  0.00    -0.326 N 
ATOM      4  O   UNL     1      -4.641   2.207   3.035  1.00  0.00    -0.275 OA
ATOM      5  H   UNL     1      -2.887   0.763   0.805  1.00  0.00     0.169 HD
BRANCH   3   6
ATOM      6  C   UNL     1      -4.310  -0.451   1.684  1.00  0.00     0.044 A 
ATOM      7  C   UNL     1      -3.878  -1.589   0.965  1.00  0.00    -0.027 A 
ATOM      8  C   UNL     1      -4.525  -2.822   1.169  1.00  0.00     0.005 A 
ATOM      9  C   UNL     1      -5.587  -2.933   2.063  1.00  0.00     0.000 A 
ATOM     10  C   UNL     1      -5.382  -0.582   2.575  1.00  0.00     0.026 A 
ATOM     11  C   UNL     1      -6.015  -1.813   2.764  1.00  0.00     0.002 A 
ATOM     12  C   UNL     1      -2.732  -1.543  -0.011  1.00  0.00     0.046 C 
ENDBRANCH   3   6
ENDBRANCH   1   2
BRANCH   1  13
ATOM     13  C   UNL     1      -1.611   3.096   2.355  1.00  0.00     0.049 C 
BRANCH  13  14
ATOM     14  C   UNL     1      -0.688   1.996   1.929  1.00  0.00    -0.003 A 
ATOM     15  C   UNL     1      -0.375   0.813   2.643  1.00  0.00     0.063 A 
ATOM     16  C   UNL     1       0.053   1.907   0.759  1.00  0.00     0.046 A 
ATOM     17  N   UNL     1       0.475   0.036   1.970  1.00  0.00    -0.171 NA
ATOM     18  N   UNL     1       0.747   0.702   0.815  1.00  0.00    -0.217 N 
ATOM     19  C   UNL     1      -0.875   0.383   3.975  1.00  0.00     0.069 C 
ATOM     20  C   UNL     1       0.154   2.869  -0.375  1.00  0.00     0.067 C 
BRANCH  18  21
ATOM     21  C   UNL     1       1.626   0.128  -0.153  1.00  0.00     0.176 A 
ATOM     22  C   UNL     1       2.229  -1.095   0.098  1.00  0.00     0.055 A 
ATOM     23  N   UNL     1       1.852   0.771  -1.315  1.00  0.00    -0.129 NA
ATOM     24  C   UNL     1       3.078  -1.639  -0.868  1.00  0.00     0.053 A 
ATOM     25  N   UNL     1       2.690   0.219  -2.266  1.00  0.00    -0.131 NA
ATOM     26  C   UNL     1       3.319  -0.959  -2.058  1.00  0.00     0.151 A 
BRANCH  26  27
ATOM     27  N   UNL     1       4.162  -1.524  -3.037  1.00  0.00    -0.351 N 
ATOM     28  C   UNL     1       4.155  -0.760  -4.307  1.00  0.00     0.146 C 
ATOM     29  C   UNL     1       5.542  -1.757  -2.552  1.00  0.00     0.146 C 
ATOM     30  C   UNL     1       5.035  -1.472  -5.345  1.00  0.00     0.181 C 
ATOM     31  C   UNL     1       6.377  -2.422  -3.660  1.00  0.00     0.181 C 
ATOM     32  O   UNL     1       6.379  -1.641  -4.864  1.00  0.00    -0.378 OA
ENDBRANCH  26  27
ENDBRANCH  18  21
ENDBRANCH  13  14
ENDBRANCH   1  13
TORSDOF 6
