REMARK SMILES Cc1cccc(NC(=O)CCc2c(C)nn(-c3ccc(N4CCOCC4)nn3)c2C)c1
REMARK SMILES IDX 10 1 8 2 7 3 9 4 6 6 2 7 3 8 31 9 4 10 5 11 1 12 11 13 12 14
REMARK SMILES IDX 13 15 29 16 15 17 16 18 14 19 30 20 17 21 18 22 28 23 19 24
REMARK SMILES IDX 27 25 20 26 21 27 22 28 26 29 23 30 25 31 24 32
REMARK H PARENT 7 5
ROOT
ATOM      1  C   UNL     1       2.879  -0.432  -0.546  1.00  0.00     0.105 C 
ENDROOT
BRANCH   1   2
ATOM      2  C   UNL     1       4.291  -0.065  -0.967  1.00  0.00     0.224 C 
ATOM      3  N   UNL     1       5.124   0.071   0.131  1.00  0.00    -0.326 N 
ATOM      4  O   UNL     1       4.598   0.085  -2.144  1.00  0.00    -0.275 OA
ATOM      5  H   UNL     1       4.709  -0.093   1.040  1.00  0.00     0.169 HD
BRANCH   3   6
ATOM      6  C   UNL     1       6.495   0.406   0.137  1.00  0.00     0.041 A 
ATOM      7  C   UNL     1       8.492   0.799   1.491  1.00  0.00    -0.049 A 
ATOM      8  C   UNL     1       9.216   1.069   0.327  1.00  0.00     0.003 A 
ATOM      9  C   UNL     1       7.129   0.480   1.386  1.00  0.00     0.029 A 
ATOM     10  C   UNL     1       8.594   0.997  -0.918  1.00  0.00     0.002 A 
ATOM     11  C   UNL     1       7.240   0.664  -1.013  1.00  0.00     0.026 A 
ATOM     12  C   UNL     1       9.146   0.907   2.836  1.00  0.00     0.044 C 
ENDBRANCH   3   6
ENDBRANCH   1   2
BRANCH   1  13
ATOM     13  C   UNL     1       1.961  -0.629  -1.750  1.00  0.00     0.049 C 
BRANCH  13  14
ATOM     14  C   UNL     1       0.562  -0.964  -1.337  1.00  0.00    -0.003 A 
ATOM     15  C   UNL     1       0.042  -2.247  -1.056  1.00  0.00     0.063 A 
ATOM     16  C   UNL     1      -0.495  -0.093  -1.105  1.00  0.00     0.046 A 
ATOM     17  N   UNL     1      -1.227  -2.190  -0.660  1.00  0.00    -0.171 NA
ATOM     18  N   UNL     1      -1.602  -0.887  -0.786  1.00  0.00    -0.217 N 
ATOM     19  C   UNL     1       0.738  -3.557  -1.120  1.00  0.00     0.069 C 
ATOM     20  C   UNL     1      -0.473   1.393  -1.130  1.00  0.00     0.067 C 
BRANCH  18  21
ATOM     21  C   UNL     1      -2.979  -0.547  -0.581  1.00  0.00     0.176 A 
ATOM     22  C   UNL     1      -3.522   0.661  -0.980  1.00  0.00     0.055 A 
ATOM     23  N   UNL     1      -3.778  -1.472  -0.006  1.00  0.00    -0.129 NA
ATOM     24  C   UNL     1      -4.880   0.913  -0.743  1.00  0.00     0.053 A 
ATOM     25  N   UNL     1      -5.123  -1.208   0.222  1.00  0.00    -0.131 NA
ATOM     26  C   UNL     1      -5.682  -0.031  -0.115  1.00  0.00     0.151 A 
BRANCH  26  27
ATOM     27  N   UNL     1      -7.038   0.202   0.105  1.00  0.00    -0.351 N 
ATOM     28  C   UNL     1      -7.796  -0.944   0.639  1.00  0.00     0.146 C 
ATOM     29  C   UNL     1      -7.458   1.520   0.614  1.00  0.00     0.146 C 
ATOM     30  C   UNL     1      -9.271  -0.543   0.804  1.00  0.00     0.181 C 
ATOM     31  C   UNL     1      -8.313   1.372   1.885  1.00  0.00     0.181 C 
ATOM     32  O   UNL     1      -9.480   0.561   1.700  1.00  0.00    -0.378 OA
ENDBRANCH  26  27
ENDBRANCH  18  21
ENDBRANCH  13  14
ENDBRANCH   1  13
TORSDOF 6
