REMARK SMILES CCOc1ccc(CNC(=O)CCc2c(C)nn(-c3ccc(N4CCOCC4)nn3)c2C)cc1
REMARK SMILES IDX 9 1 10 2 11 3 8 5 7 6 4 7 5 8 34 9 6 10 33 11 3 12 2 13 1 14
REMARK SMILES IDX 12 15 13 16 14 17 15 18 31 19 17 20 18 21 16 22 32 23 19 24
REMARK SMILES IDX 20 25 30 26 21 27 29 28 22 29 23 30 24 31 28 32 25 33 27 34
REMARK SMILES IDX 26 35
REMARK H PARENT 9 4
ROOT
ATOM      1  N   UNL     1       3.802   1.217  -2.117  1.00  0.00    -0.352 N 
ATOM      2  C   UNL     1       3.022   0.083  -2.057  1.00  0.00     0.220 C 
ATOM      3  O   UNL     1       3.350  -0.995  -2.540  1.00  0.00    -0.275 OA
ATOM      4  H   UNL     1       3.550   2.010  -1.542  1.00  0.00     0.163 HD
ENDROOT
BRANCH   1   5
ATOM      5  C   UNL     1       5.150   1.185  -2.640  1.00  0.00     0.151 C 
BRANCH   5   6
ATOM      6  C   UNL     1       6.152   1.073  -1.521  1.00  0.00    -0.029 A 
ATOM      7  C   UNL     1       7.980   0.848   0.611  1.00  0.00     0.119 A 
ATOM      8  C   UNL     1       7.364  -0.290   0.094  1.00  0.00     0.047 A 
ATOM      9  C   UNL     1       7.676   2.097   0.064  1.00  0.00     0.047 A 
ATOM     10  C   UNL     1       6.454  -0.177  -0.963  1.00  0.00     0.009 A 
ATOM     11  C   UNL     1       6.768   2.213  -0.991  1.00  0.00     0.009 A 
BRANCH   7  12
ATOM     12  O   UNL     1       8.883   0.880   1.638  1.00  0.00    -0.494 OA
BRANCH  12  13
ATOM     13  C   UNL     1       9.239  -0.370   2.227  1.00  0.00     0.226 C 
ATOM     14  C   UNL     1      10.249  -0.098   3.327  1.00  0.00     0.049 C 
ENDBRANCH  12  13
ENDBRANCH   7  12
ENDBRANCH   5   6
ENDBRANCH   1   5
BRANCH   2  15
ATOM     15  C   UNL     1       1.708   0.314  -1.343  1.00  0.00     0.105 C 
BRANCH  15  16
ATOM     16  C   UNL     1       0.886  -0.968  -1.253  1.00  0.00     0.049 C 
BRANCH  16  17
ATOM     17  C   UNL     1      -0.422  -0.750  -0.559  1.00  0.00    -0.003 A 
ATOM     18  C   UNL     1      -0.667  -0.807   0.832  1.00  0.00     0.063 A 
ATOM     19  C   UNL     1      -1.645  -0.407  -1.122  1.00  0.00     0.046 A 
ATOM     20  N   UNL     1      -1.931  -0.513   1.123  1.00  0.00    -0.171 NA
ATOM     21  N   UNL     1      -2.567  -0.362  -0.071  1.00  0.00    -0.217 N 
ATOM     22  C   UNL     1       0.293  -1.109   1.924  1.00  0.00     0.069 C 
ATOM     23  C   UNL     1      -1.935  -0.090  -2.545  1.00  0.00     0.067 C 
BRANCH  21  24
ATOM     24  C   UNL     1      -3.991  -0.190  -0.071  1.00  0.00     0.176 A 
ATOM     25  C   UNL     1      -4.766  -0.347  -1.207  1.00  0.00     0.055 A 
ATOM     26  N   UNL     1      -4.589   0.106   1.104  1.00  0.00    -0.129 NA
ATOM     27  C   UNL     1      -6.151  -0.169  -1.118  1.00  0.00     0.053 A 
ATOM     28  N   UNL     1      -5.961   0.293   1.178  1.00  0.00    -0.131 NA
ATOM     29  C   UNL     1      -6.748   0.155   0.095  1.00  0.00     0.151 A 
BRANCH  29  30
ATOM     30  N   UNL     1      -8.145   0.335   0.164  1.00  0.00    -0.351 N 
ATOM     31  C   UNL     1      -8.614   0.945   1.433  1.00  0.00     0.146 C 
ATOM     32  C   UNL     1      -8.875  -0.906  -0.194  1.00  0.00     0.146 C 
ATOM     33  C   UNL     1      -9.116  -0.134   2.403  1.00  0.00     0.181 C 
ATOM     34  C   UNL     1     -10.271  -0.921   0.449  1.00  0.00     0.181 C 
ATOM     35  O   UNL     1     -10.229  -0.887   1.884  1.00  0.00    -0.378 OA
ENDBRANCH  29  30
ENDBRANCH  21  24
ENDBRANCH  16  17
ENDBRANCH  15  16
ENDBRANCH   2  15
TORSDOF 9
