REMARK SMILES Cc1oc2c(c1C(=O)Nc1ccc(F)c(F)c1)C1=NCCN1C=N2
REMARK SMILES IDX 7 1 8 2 9 3 6 5 2 6 3 7 4 8 5 9 24 10 18 11 23 12 19 13
REMARK SMILES IDX 22 14 20 15 21 16 1 17 10 18 11 19 17 20 12 21 15 22 13 23
REMARK SMILES IDX 16 24 14 25
REMARK H PARENT 9 4
ROOT
ATOM      1  C   UNL     1       0.563   0.301   0.683  1.00  0.00     0.260 C 
ATOM      2  O   UNL     1       0.657  -0.395   1.684  1.00  0.00    -0.269 OA
ATOM      3  N   UNL     1       1.550   0.530  -0.259  1.00  0.00    -0.322 N 
ATOM      4  H   UNL     1       1.279   1.091  -1.056  1.00  0.00     0.170 HD
ENDROOT
BRANCH   1   5
ATOM      5  C   UNL     1      -0.666   1.009   0.376  1.00  0.00     0.094 A 
ATOM      6  C   UNL     1      -0.808   2.379   0.219  1.00  0.00     0.117 A 
ATOM      7  O   UNL     1      -2.109   2.703  -0.030  1.00  0.00    -0.442 OA
ATOM      8  C   UNL     1      -2.835   1.549  -0.015  1.00  0.00     0.232 A 
ATOM      9  C   UNL     1      -1.970   0.484   0.218  1.00  0.00     0.096 A 
ATOM     10  N   UNL     1      -4.188   1.508  -0.210  1.00  0.00    -0.203 NA
ATOM     11  C   UNL     1      -2.527  -0.833   0.236  1.00  0.00     0.142 C 
ATOM     12  C   UNL     1      -4.645   0.291  -0.148  1.00  0.00     0.205 C 
ATOM     13  N   UNL     1      -1.886  -1.954   0.349  1.00  0.00    -0.266 NA
ATOM     14  N   UNL     1      -3.882  -0.827   0.073  1.00  0.00    -0.315 N 
ATOM     15  C   UNL     1      -3.001  -2.956   0.299  1.00  0.00     0.166 C 
ATOM     16  C   UNL     1      -4.329  -2.193   0.069  1.00  0.00     0.149 C 
ATOM     17  C   UNL     1       0.133   3.518   0.293  1.00  0.00     0.088 C 
ENDBRANCH   1   5
BRANCH   3  18
ATOM     18  C   UNL     1       2.866   0.024  -0.266  1.00  0.00     0.044 A 
ATOM     19  C   UNL     1       3.397  -0.792   0.741  1.00  0.00     0.029 A 
ATOM     20  C   UNL     1       3.676   0.373  -1.354  1.00  0.00     0.068 A 
ATOM     21  C   UNL     1       4.716  -1.253   0.662  1.00  0.00     0.044 A 
ATOM     22  C   UNL     1       4.988  -0.091  -1.425  1.00  0.00     0.160 A 
ATOM     23  C   UNL     1       5.506  -0.899  -0.423  1.00  0.00     0.158 A 
ATOM     24  F   UNL     1       5.748   0.255  -2.474  1.00  0.00    -0.204 F 
ATOM     25  F   UNL     1       6.769  -1.341  -0.494  1.00  0.00    -0.204 F 
ENDBRANCH   3  18
TORSDOF 2
