REMARK SMILES CC1=C(C(=O)Nc2ccccc2Cl)C(c2cccc(Br)c2)NC(=O)N1
REMARK SMILES IDX 1 1 2 2 3 3 14 4 22 5 23 6 24 7 25 8 4 11 5 12 6 13 7 15
REMARK SMILES IDX 8 16 12 17 9 18 11 19 10 20 13 21 15 22 16 23 21 24 17 25
REMARK SMILES IDX 19 26 18 27 20 28
REMARK H PARENT 22 9 25 10 6 14
ROOT
ATOM      1  C   UNL     1       1.269  -1.196   2.930  1.00  0.00     0.065 C 
ATOM      2  C   UNL     1      -0.118  -0.776   2.537  1.00  0.00     0.028 C 
ATOM      3  C   UNL     1      -0.439   0.151   1.617  1.00  0.00     0.063 C 
ATOM      4  C   UNL     1      -1.855   0.547   1.317  1.00  0.00     0.152 C 
ATOM      5  N   UNL     1      -2.789  -0.134   2.195  1.00  0.00    -0.327 N 
ATOM      6  C   UNL     1      -2.466  -1.100   3.088  1.00  0.00     0.319 C 
ATOM      7  O   UNL     1      -3.323  -1.677   3.748  1.00  0.00    -0.248 OA
ATOM      8  N   UNL     1      -1.141  -1.392   3.218  1.00  0.00    -0.311 N 
ATOM      9  H   UNL     1      -3.776   0.063   2.108  1.00  0.00     0.166 HD
ATOM     10  H   UNL     1      -0.936  -2.094   3.920  1.00  0.00     0.171 HD
ENDROOT
BRANCH   3  11
ATOM     11  C   UNL     1       0.588   0.892   0.843  1.00  0.00     0.255 C 
ATOM     12  O   UNL     1       0.719   2.096   1.013  1.00  0.00    -0.269 OA
ATOM     13  N   UNL     1       1.248   0.082  -0.052  1.00  0.00    -0.321 N 
ATOM     14  H   UNL     1       0.944  -0.885  -0.118  1.00  0.00     0.170 HD
BRANCH  13  15
ATOM     15  C   UNL     1       2.254   0.446  -0.977  1.00  0.00     0.060 A 
ATOM     16  C   UNL     1       2.801   1.729  -1.048  1.00  0.00     0.028 A 
ATOM     17  C   UNL     1       2.729  -0.537  -1.866  1.00  0.00     0.064 A 
ATOM     18  C   UNL     1       3.796   2.026  -1.986  1.00  0.00     0.002 A 
ATOM     19  C   UNL     1       3.722  -0.241  -2.803  1.00  0.00     0.023 A 
ATOM     20  C   UNL     1       4.256   1.045  -2.862  1.00  0.00     0.002 A 
ATOM     21  Cl  UNL     1       2.094  -2.149  -1.831  1.00  0.00    -0.082 Cl
ENDBRANCH  13  15
ENDBRANCH   3  11
BRANCH   4  22
ATOM     22  C   UNL     1      -2.228   0.291  -0.138  1.00  0.00    -0.020 A 
ATOM     23  C   UNL     1      -2.305   1.364  -1.041  1.00  0.00     0.006 A 
ATOM     24  C   UNL     1      -2.440  -1.013  -0.620  1.00  0.00     0.022 A 
ATOM     25  C   UNL     1      -2.596   1.141  -2.389  1.00  0.00     0.002 A 
ATOM     26  C   UNL     1      -2.727  -1.227  -1.968  1.00  0.00     0.018 A 
ATOM     27  C   UNL     1      -2.808  -0.156  -2.854  1.00  0.00     0.016 A 
ATOM     28  Br  UNL     1      -2.997  -2.988  -2.599  1.00  0.00    -0.051 Br
ENDBRANCH   4  22
TORSDOF 3
