REMARK SMILES CC1=C(C(=O)Nc2ccccc2Cl)C(c2ccc([N+](=O)[O-])cc2)NC(=O)N1
REMARK SMILES IDX 1 1 2 2 3 3 14 4 24 5 25 6 26 7 27 8 4 11 5 12 6 13 7 15
REMARK SMILES IDX 8 16 12 17 9 18 11 19 10 20 13 21 15 22 16 23 23 24 17 25
REMARK SMILES IDX 22 26 18 27 19 28 20 29 21 30
REMARK H PARENT 24 9 27 10 6 14
ROOT
ATOM      1  C   UNL     1      -1.448   0.849   2.543  1.00  0.00     0.065 C 
ATOM      2  C   UNL     1      -0.226   1.225   1.755  1.00  0.00     0.028 C 
ATOM      3  C   UNL     1       0.085   0.807   0.514  1.00  0.00     0.063 C 
ATOM      4  C   UNL     1       1.399   1.146  -0.133  1.00  0.00     0.152 C 
ATOM      5  N   UNL     1       2.009   2.285   0.531  1.00  0.00    -0.327 N 
ATOM      6  C   UNL     1       1.764   2.625   1.823  1.00  0.00     0.319 C 
ATOM      7  O   UNL     1       2.483   3.410   2.430  1.00  0.00    -0.248 OA
ATOM      8  N   UNL     1       0.658   2.066   2.394  1.00  0.00    -0.311 N 
ATOM      9  H   UNL     1       2.875   2.651   0.162  1.00  0.00     0.166 HD
ATOM     10  H   UNL     1       0.472   2.379   3.341  1.00  0.00     0.171 HD
ENDROOT
BRANCH   3  11
ATOM     11  C   UNL     1      -0.847  -0.001  -0.317  1.00  0.00     0.255 C 
ATOM     12  O   UNL     1      -0.498  -1.089  -0.754  1.00  0.00    -0.269 OA
ATOM     13  N   UNL     1      -2.038   0.650  -0.552  1.00  0.00    -0.321 N 
ATOM     14  H   UNL     1      -2.149   1.582  -0.163  1.00  0.00     0.170 HD
BRANCH  13  15
ATOM     15  C   UNL     1      -3.151   0.190  -1.295  1.00  0.00     0.060 A 
ATOM     16  C   UNL     1      -3.198  -1.063  -1.912  1.00  0.00     0.028 A 
ATOM     17  C   UNL     1      -4.271   1.037  -1.413  1.00  0.00     0.064 A 
ATOM     18  C   UNL     1      -4.332  -1.459  -2.632  1.00  0.00     0.002 A 
ATOM     19  C   UNL     1      -5.402   0.641  -2.131  1.00  0.00     0.023 A 
ATOM     20  C   UNL     1      -5.431  -0.610  -2.743  1.00  0.00     0.002 A 
ATOM     21  Cl  UNL     1      -4.285   2.600  -0.665  1.00  0.00    -0.082 Cl
ENDBRANCH  13  15
ENDBRANCH   3  11
BRANCH   4  22
ATOM     22  C   UNL     1       2.385  -0.016  -0.194  1.00  0.00    -0.020 A 
ATOM     23  C   UNL     1       2.715  -0.587  -1.436  1.00  0.00     0.013 A 
ATOM     24  C   UNL     1       2.968  -0.550   0.970  1.00  0.00     0.013 A 
ATOM     25  C   UNL     1       3.606  -1.661  -1.517  1.00  0.00     0.086 A 
ATOM     26  C   UNL     1       3.861  -1.622   0.899  1.00  0.00     0.086 A 
ATOM     27  C   UNL     1       4.176  -2.175  -0.347  1.00  0.00     0.269 A 
BRANCH  27  28
ATOM     28  N   UNL     1       5.110  -3.305  -0.428  1.00  0.00     0.062 N 
ATOM     29  O   UNL     1       5.557  -3.762   0.634  1.00  0.00    -0.258 OA
ATOM     30  O   UNL     1       5.403  -3.733  -1.554  1.00  0.00    -0.258 OA
ENDBRANCH  27  28
ENDBRANCH   4  22
TORSDOF 4
