REMARK SMILES CCn1nc(C)c(CCN(C)C(=O)Nc2cc(Cl)ccc2C)c1C
REMARK SMILES IDX 9 1 8 2 7 3 3 4 4 5 23 6 5 7 24 8 6 9 2 10 1 11 10 12 11 13
REMARK SMILES IDX 12 14 13 15 14 16 15 18 16 19 21 20 17 21 20 22 19 23 22 24
REMARK SMILES IDX 18 25
REMARK H PARENT 14 17
ROOT
ATOM      1  C   UNL     1       0.371  -0.105  -1.303  1.00  0.00     0.126 C 
ENDROOT
BRANCH   1   2
ATOM      2  C   UNL     1       1.185  -0.948  -0.315  1.00  0.00     0.061 C 
BRANCH   2   3
ATOM      3  C   UNL     1       2.607  -0.501  -0.231  1.00  0.00    -0.002 A 
ATOM      4  N   UNL     1       4.475   0.547   0.267  1.00  0.00    -0.270 N 
ATOM      5  N   UNL     1       4.854  -0.388  -0.621  1.00  0.00    -0.178 NA
ATOM      6  C   UNL     1       3.130   0.528   0.536  1.00  0.00     0.039 A 
ATOM      7  C   UNL     1       3.725  -1.033  -0.928  1.00  0.00     0.063 A 
ATOM      8  C   UNL     1       2.471   1.471   1.477  1.00  0.00     0.066 C 
ATOM      9  C   UNL     1       3.753  -2.157  -1.896  1.00  0.00     0.069 C 
BRANCH   4  10
ATOM     10  C   UNL     1       5.482   1.438   0.814  1.00  0.00     0.141 C 
ATOM     11  C   UNL     1       6.158   0.852   2.041  1.00  0.00     0.029 C 
ENDBRANCH   4  10
ENDBRANCH   2   3
ENDBRANCH   1   2
BRANCH   1  12
ATOM     12  N   UNL     1      -1.023  -0.549  -1.393  1.00  0.00    -0.327 N 
ATOM     13  C   UNL     1      -1.325  -1.562  -2.396  1.00  0.00     0.148 C 
BRANCH  12  14
ATOM     14  C   UNL     1      -1.911  -0.082  -0.424  1.00  0.00     0.321 C 
ATOM     15  O   UNL     1      -1.585   0.783   0.384  1.00  0.00    -0.248 OA
ATOM     16  N   UNL     1      -3.140  -0.705  -0.436  1.00  0.00    -0.308 N 
ATOM     17  H   UNL     1      -3.059  -1.699  -0.592  1.00  0.00     0.171 HD
BRANCH  16  18
ATOM     18  C   UNL     1      -4.267  -0.305   0.322  1.00  0.00     0.047 A 
ATOM     19  C   UNL     1      -5.039  -1.342   0.870  1.00  0.00     0.047 A 
ATOM     20  C   UNL     1      -4.681   1.029   0.498  1.00  0.00    -0.027 A 
ATOM     21  C   UNL     1      -6.159  -1.058   1.649  1.00  0.00     0.043 A 
ATOM     22  C   UNL     1      -5.805   1.293   1.307  1.00  0.00     0.007 A 
ATOM     23  C   UNL     1      -6.539   0.257   1.882  1.00  0.00     0.021 A 
ATOM     24  C   UNL     1      -4.016   2.213  -0.151  1.00  0.00     0.046 C 
ATOM     25  Cl  UNL     1      -7.073  -2.346   2.333  1.00  0.00    -0.084 Cl
ENDBRANCH  16  18
ENDBRANCH  12  14
ENDBRANCH   1  12
TORSDOF 6
