REMARK SMILES CC1=C(C(=O)Nc2cccnc2)C(c2cccnc2)n2ncnc2N1
REMARK SMILES IDX 1 1 2 2 3 3 13 4 20 5 21 6 22 7 23 8 24 9 25 10 4 12 5 13
REMARK SMILES IDX 6 14 7 16 8 17 12 18 9 19 11 20 10 21 14 22 15 23 19 24
REMARK SMILES IDX 16 25 18 26 17 27
REMARK H PARENT 25 11 6 15
ROOT
ATOM      1  C   UNL     1       1.182   2.271  -2.038  1.00  0.00     0.065 C 
ATOM      2  C   UNL     1      -0.155   1.646  -1.725  1.00  0.00     0.026 C 
ATOM      3  C   UNL     1      -0.329   0.374  -1.294  1.00  0.00     0.065 C 
ATOM      4  C   UNL     1      -1.710  -0.234  -1.085  1.00  0.00     0.180 C 
ATOM      5  N   UNL     1      -2.759   0.685  -1.540  1.00  0.00    -0.219 N 
ATOM      6  N   UNL     1      -4.064   0.363  -1.647  1.00  0.00    -0.157 NA
ATOM      7  C   UNL     1      -4.570   1.522  -2.084  1.00  0.00     0.248 A 
ATOM      8  N   UNL     1      -3.663   2.535  -2.275  1.00  0.00    -0.200 NA
ATOM      9  C   UNL     1      -2.529   1.974  -1.943  1.00  0.00     0.226 A 
ATOM     10  N   UNL     1      -1.267   2.447  -1.963  1.00  0.00    -0.328 N 
ATOM     11  H   UNL     1      -1.109   3.364  -2.372  1.00  0.00     0.169 HD
ENDROOT
BRANCH   3  12
ATOM     12  C   UNL     1       0.788  -0.574  -1.069  1.00  0.00     0.255 C 
ATOM     13  O   UNL     1       0.840  -1.599  -1.733  1.00  0.00    -0.269 OA
ATOM     14  N   UNL     1       1.625  -0.186  -0.048  1.00  0.00    -0.321 N 
ATOM     15  H   UNL     1       1.380   0.653   0.463  1.00  0.00     0.170 HD
BRANCH  14  16
ATOM     16  C   UNL     1       2.769  -0.876   0.404  1.00  0.00     0.059 A 
ATOM     17  C   UNL     1       3.459  -0.345   1.497  1.00  0.00     0.029 A 
ATOM     18  C   UNL     1       3.277  -2.043  -0.160  1.00  0.00     0.137 A 
ATOM     19  C   UNL     1       4.601  -0.984   1.978  1.00  0.00     0.022 A 
ATOM     20  N   UNL     1       4.390  -2.682   0.285  1.00  0.00    -0.263 NA
ATOM     21  C   UNL     1       5.023  -2.139   1.345  1.00  0.00     0.111 A 
ENDBRANCH  14  16
ENDBRANCH   3  12
BRANCH   4  22
ATOM     22  C   UNL     1      -1.934  -0.619   0.368  1.00  0.00    -0.000 A 
ATOM     23  C   UNL     1      -2.118   0.325   1.388  1.00  0.00     0.009 A 
ATOM     24  C   UNL     1      -1.911  -1.961   0.743  1.00  0.00     0.117 A 
ATOM     25  C   UNL     1      -2.285  -0.098   2.704  1.00  0.00     0.020 A 
ATOM     26  N   UNL     1      -2.060  -2.395   2.014  1.00  0.00    -0.264 NA
ATOM     27  C   UNL     1      -2.251  -1.457   2.964  1.00  0.00     0.111 A 
ENDBRANCH   4  22
TORSDOF 3
