REMARK SMILES CC(=O)N1CCN(C(=O)C(=O)Nc2c3c(nn2-c2ccc(Cl)cc2)CSC3)CC1
REMARK SMILES IDX 13 1 14 2 15 3 16 4 17 5 25 6 26 7 27 8 12 9 10 10 11 11
REMARK SMILES IDX 8 13 2 14 3 15 4 16 5 17 29 18 6 19 28 20 7 21 9 22 1 23
REMARK SMILES IDX 18 24 19 25 24 26 20 27 23 28 21 29 22 30
REMARK H PARENT 12 12
ROOT
ATOM      1  C   UNL     1       2.463  -0.616  -1.729  1.00  0.00     0.141 A 
ATOM      2  C   UNL     1       3.452  -1.110  -2.546  1.00  0.00     0.029 A 
ATOM      3  C   UNL     1       4.276  -0.019  -2.830  1.00  0.00     0.079 A 
ATOM      4  N   UNL     1       3.904   1.097  -2.214  1.00  0.00    -0.170 NA
ATOM      5  N   UNL     1       2.884   0.686  -1.388  1.00  0.00    -0.217 N 
ATOM      6  C   UNL     1       5.383  -0.205  -3.788  1.00  0.00     0.128 C 
ATOM      7  S   UNL     1       5.236  -1.997  -4.280  1.00  0.00    -0.150 SA
ATOM      8  C   UNL     1       3.742  -2.373  -3.244  1.00  0.00     0.111 C 
ENDROOT
BRANCH   1   9
ATOM      9  N   UNL     1       1.302  -1.272  -1.350  1.00  0.00    -0.302 N 
ATOM     10  C   UNL     1       0.091  -0.606  -1.222  1.00  0.00     0.315 C 
ATOM     11  O   UNL     1      -0.111   0.590  -1.349  1.00  0.00    -0.263 OA
ATOM     12  H   UNL     1       1.204  -2.266  -1.554  1.00  0.00     0.172 HD
BRANCH  10  13
ATOM     13  C   UNL     1      -1.058  -1.603  -0.935  1.00  0.00     0.312 C 
ATOM     14  C   UNL     1      -4.569  -0.452   3.250  1.00  0.00     0.219 C 
ATOM     15  O   UNL     1      -4.758  -1.376   4.041  1.00  0.00    -0.275 OA
ATOM     16  N   UNL     1      -3.931  -0.639   2.035  1.00  0.00    -0.339 N 
ATOM     17  C   UNL     1      -3.656   0.417   1.054  1.00  0.00     0.141 C 
ATOM     18  C   UNL     1      -3.554  -2.006   1.662  1.00  0.00     0.141 C 
ATOM     19  C   UNL     1      -2.337   0.193   0.295  1.00  0.00     0.141 C 
ATOM     20  C   UNL     1      -3.186  -2.149   0.181  1.00  0.00     0.141 C 
ATOM     21  N   UNL     1      -2.167  -1.175  -0.210  1.00  0.00    -0.331 N 
ATOM     22  O   UNL     1      -0.890  -2.758  -1.326  1.00  0.00    -0.263 OA
ATOM     23  C   UNL     1      -5.029   0.944   3.583  1.00  0.00     0.114 C 
ENDBRANCH  10  13
ENDBRANCH   1   9
BRANCH   5  24
ATOM     24  C   UNL     1       2.543   1.499  -0.266  1.00  0.00     0.067 A 
ATOM     25  C   UNL     1       2.847   2.870  -0.296  1.00  0.00     0.030 A 
ATOM     26  C   UNL     1       1.971   0.947   0.890  1.00  0.00     0.030 A 
ATOM     27  C   UNL     1       2.536   3.686   0.796  1.00  0.00     0.023 A 
ATOM     28  C   UNL     1       1.664   1.766   1.981  1.00  0.00     0.023 A 
ATOM     29  C   UNL     1       1.941   3.131   1.926  1.00  0.00     0.041 A 
ATOM     30  Cl  UNL     1       1.554   4.134   3.270  1.00  0.00    -0.084 Cl
ENDBRANCH   5  24
TORSDOF 3
