REMARK SMILES CCOC(=O)c1cnn(-c2ccc(C(=O)Nc3ccc(OC(F)(F)F)cc3)cc2)c1N
REMARK SMILES IDX 10 1 11 2 12 3 13 4 28 5 29 6 9 7 6 8 7 9 30 10 8 11 4 12
REMARK SMILES IDX 5 13 3 14 2 15 1 16 31 17 14 20 15 21 16 22 17 24 18 25
REMARK SMILES IDX 27 26 19 27 26 28 20 29 21 30 22 31 23 32 24 33 25 34
REMARK H PARENT 31 18 31 19 16 23
ROOT
ATOM      1  C   UNL     1      -1.524   0.459   0.652  1.00  0.00     0.067 A 
ATOM      2  C   UNL     1      -0.818  -0.554  -0.010  1.00  0.00     0.029 A 
ATOM      3  C   UNL     1       0.582  -0.576   0.017  1.00  0.00     0.016 A 
ATOM      4  C   UNL     1       1.289   0.425   0.694  1.00  0.00     0.040 A 
ATOM      5  C   UNL     1       0.591   1.438   1.356  1.00  0.00     0.016 A 
ATOM      6  C   UNL     1      -0.806   1.464   1.323  1.00  0.00     0.029 A 
ENDROOT
BRANCH   1   7
ATOM      7  N   UNL     1      -2.952   0.519   0.639  1.00  0.00    -0.217 N 
ATOM      8  C   UNL     1      -5.126   0.167   0.266  1.00  0.00     0.122 A 
ATOM      9  C   UNL     1      -4.856   1.480   0.689  1.00  0.00     0.153 A 
ATOM     10  C   UNL     1      -3.894  -0.465   0.301  1.00  0.00     0.141 A 
ATOM     11  N   UNL     1      -3.573   1.686   0.974  1.00  0.00    -0.174 NA
BRANCH   8  12
ATOM     12  C   UNL     1      -6.404  -0.425  -0.073  1.00  0.00     0.343 C 
ATOM     13  O   UNL     1      -6.551  -1.615  -0.330  1.00  0.00    -0.246 OA
BRANCH  12  14
ATOM     14  O   UNL     1      -7.416   0.492  -0.057  1.00  0.00    -0.462 OA
BRANCH  14  15
ATOM     15  C   UNL     1      -8.721  -0.008  -0.382  1.00  0.00     0.230 C 
ATOM     16  C   UNL     1      -9.399  -0.549   0.863  1.00  0.00     0.049 C 
ENDBRANCH  14  15
ENDBRANCH  12  14
ENDBRANCH   8  12
BRANCH  10  17
ATOM     17  N   UNL     1      -3.611  -1.784   0.089  1.00  0.00    -0.383 N 
ATOM     18  H   UNL     1      -2.905  -2.225   0.678  1.00  0.00     0.158 HD
ATOM     19  H   UNL     1      -4.417  -2.409  -0.018  1.00  0.00     0.158 HD
ENDBRANCH  10  17
ENDBRANCH   1   7
BRANCH   4  20
ATOM     20  C   UNL     1       2.778   0.432   0.746  1.00  0.00     0.255 C 
ATOM     21  O   UNL     1       3.319   0.794   1.783  1.00  0.00    -0.269 OA
ATOM     22  N   UNL     1       3.399   0.051  -0.430  1.00  0.00    -0.322 N 
ATOM     23  H   UNL     1       2.805  -0.086  -1.237  1.00  0.00     0.170 HD
BRANCH  22  24
ATOM     24  C   UNL     1       4.784  -0.075  -0.662  1.00  0.00     0.041 A 
ATOM     25  C   UNL     1       5.760   0.084   0.322  1.00  0.00     0.030 A 
ATOM     26  C   UNL     1       5.190  -0.392  -1.962  1.00  0.00     0.030 A 
ATOM     27  C   UNL     1       7.121  -0.065   0.016  1.00  0.00     0.049 A 
ATOM     28  C   UNL     1       6.547  -0.540  -2.267  1.00  0.00     0.049 A 
ATOM     29  C   UNL     1       7.523  -0.377  -1.281  1.00  0.00     0.129 A 
BRANCH  29  30
ATOM     30  O   UNL     1       8.803  -0.549  -1.719  1.00  0.00    -0.406 OA
BRANCH  30  31
ATOM     31  C   UNL     1       9.850  -0.400  -0.774  1.00  0.00     0.573 C 
ATOM     32  F   UNL     1      11.029  -0.609  -1.401  1.00  0.00    -0.132 F 
ATOM     33  F   UNL     1       9.741  -1.303   0.223  1.00  0.00    -0.132 F 
ATOM     34  F   UNL     1       9.867   0.847  -0.257  1.00  0.00    -0.132 F 
ENDBRANCH  30  31
ENDBRANCH  29  30
ENDBRANCH  22  24
ENDBRANCH   4  20
TORSDOF 9
