REMARK SMILES Cn1cc2cc(C(F)(F)c3nnc4ccc(-c5cnn(C6CC6)c5)nn34)c(F)cc2n1
REMARK SMILES IDX 10 1 11 2 12 3 13 4 14 5 15 6 16 7 25 8 26 9 7 10 8 11 9 12
REMARK SMILES IDX 6 13 2 14 3 15 31 16 4 17 30 18 5 19 29 20 27 21 1 22 28 23
REMARK SMILES IDX 17 24 18 25 24 26 19 27 20 28 21 29 22 30 23 31
REMARK H PARENT
ROOT
ATOM      1  C   UNL     1      -0.813  -2.767  -2.512  1.00  0.00     0.229 A 
ATOM      2  N   UNL     1      -0.833  -4.053  -2.823  1.00  0.00    -0.126 NA
ATOM      3  N   UNL     1       0.156  -4.687  -2.106  1.00  0.00    -0.128 NA
ATOM      4  C   UNL     1       0.760  -3.778  -1.376  1.00  0.00     0.178 A 
ATOM      5  C   UNL     1       1.826  -3.851  -0.456  1.00  0.00     0.053 C 
ATOM      6  C   UNL     1       2.232  -2.736   0.167  1.00  0.00     0.035 C 
ATOM      7  C   UNL     1       1.511  -1.477  -0.165  1.00  0.00     0.095 C 
ATOM      8  N   UNL     1       0.534  -1.359  -1.011  1.00  0.00    -0.164 NA
ATOM      9  N   UNL     1       0.187  -2.543  -1.599  1.00  0.00    -0.190 N 
ENDROOT
BRANCH   1  10
ATOM     10  C   UNL     1      -1.674  -1.671  -3.042  1.00  0.00     0.336 C 
ATOM     11  F   UNL     1      -2.523  -2.159  -4.001  1.00  0.00    -0.192 F 
ATOM     12  F   UNL     1      -0.879  -0.793  -3.739  1.00  0.00    -0.192 F 
BRANCH  10  13
ATOM     13  C   UNL     1      -2.467  -0.948  -1.957  1.00  0.00     0.066 A 
ATOM     14  N   UNL     1      -3.822   2.157   0.892  1.00  0.00    -0.275 N 
ATOM     15  C   UNL     1      -2.874   2.147  -0.092  1.00  0.00     0.117 A 
ATOM     16  N   UNL     1      -4.498   0.996   1.027  1.00  0.00    -0.173 NA
ATOM     17  C   UNL     1      -2.948   0.891  -0.625  1.00  0.00     0.021 A 
ATOM     18  C   UNL     1      -3.975   0.182   0.095  1.00  0.00     0.095 A 
ATOM     19  C   UNL     1      -2.161   0.408  -1.661  1.00  0.00     0.025 A 
ATOM     20  C   UNL     1      -4.285  -1.147  -0.220  1.00  0.00     0.070 A 
ATOM     21  C   UNL     1      -3.493  -1.670  -1.262  1.00  0.00     0.135 A 
ATOM     22  C   UNL     1      -4.142   3.261   1.765  1.00  0.00     0.173 C 
ATOM     23  F   UNL     1      -3.717  -2.946  -1.610  1.00  0.00    -0.206 F 
ENDBRANCH  10  13
ENDBRANCH   1  10
BRANCH   7  24
ATOM     24  C   UNL     1       1.942  -0.279   0.530  1.00  0.00     0.040 A 
ATOM     25  C   UNL     1       1.369   1.018   0.433  1.00  0.00     0.145 A 
ATOM     26  C   UNL     1       2.974  -0.099   1.434  1.00  0.00     0.119 A 
ATOM     27  N   UNL     1       1.979   1.923   1.202  1.00  0.00    -0.181 NA
ATOM     28  N   UNL     1       2.954   1.220   1.785  1.00  0.00    -0.269 N 
BRANCH  28  29
ATOM     29  C   UNL     1       3.890   1.824   2.755  1.00  0.00     0.107 C 
ATOM     30  C   UNL     1       4.628   3.108   2.457  1.00  0.00     0.029 C 
ATOM     31  C   UNL     1       5.387   1.818   2.548  1.00  0.00     0.029 C 
ENDBRANCH  28  29
ENDBRANCH   7  24
TORSDOF 4
