REMARK SMILES Cc1ccc(CNc2ncnc3c2cnn3-c2ccc(Cl)cc2)cc1
REMARK SMILES IDX 7 1 6 3 5 4 2 5 3 6 25 7 4 8 24 9 1 10 8 11 9 12 13 13 10 14
REMARK SMILES IDX 12 15 14 16 11 17 16 18 15 19 17 20 18 21 23 22 19 23 22 24
REMARK SMILES IDX 20 25 21 26
REMARK H PARENT 7 2
ROOT
ATOM      1  N   UNL     1      -1.224  -0.208  -0.480  1.00  0.00    -0.365 N 
ATOM      2  H   UNL     1      -1.413   0.251   0.403  1.00  0.00     0.162 HD
ENDROOT
BRANCH   1   3
ATOM      3  C   UNL     1      -2.209   0.065  -1.514  1.00  0.00     0.150 C 
BRANCH   3   4
ATOM      4  C   UNL     1      -3.583   0.083  -0.884  1.00  0.00    -0.029 A 
ATOM      5  C   UNL     1      -6.124   0.107   0.338  1.00  0.00    -0.051 A 
ATOM      6  C   UNL     1      -5.518   1.303  -0.064  1.00  0.00     0.004 A 
ATOM      7  C   UNL     1      -5.457  -1.102   0.111  1.00  0.00     0.004 A 
ATOM      8  C   UNL     1      -4.255   1.293  -0.662  1.00  0.00     0.006 A 
ATOM      9  C   UNL     1      -4.196  -1.113  -0.487  1.00  0.00     0.006 A 
ATOM     10  C   UNL     1      -7.493   0.117   0.949  1.00  0.00     0.044 C 
ENDBRANCH   3   4
ENDBRANCH   1   3
BRANCH   1  11
ATOM     11  C   UNL     1       0.108  -0.140  -0.876  1.00  0.00     0.140 A 
ATOM     12  N   UNL     1       0.437  -0.228  -2.186  1.00  0.00    -0.219 NA
ATOM     13  C   UNL     1       1.154   0.003   0.046  1.00  0.00     0.082 A 
ATOM     14  C   UNL     1       1.733  -0.168  -2.538  1.00  0.00     0.226 A 
ATOM     15  C   UNL     1       2.453   0.057  -0.436  1.00  0.00     0.168 A 
ATOM     16  C   UNL     1       1.287   0.108   1.439  1.00  0.00     0.150 A 
ATOM     17  N   UNL     1       2.799  -0.021  -1.738  1.00  0.00    -0.216 NA
ATOM     18  N   UNL     1       3.282   0.202   0.677  1.00  0.00    -0.215 N 
ATOM     19  N   UNL     1       2.552   0.239   1.835  1.00  0.00    -0.174 NA
BRANCH  18  20
ATOM     20  C   UNL     1       4.707   0.311   0.742  1.00  0.00     0.067 A 
ATOM     21  C   UNL     1       5.325   0.452   1.999  1.00  0.00     0.030 A 
ATOM     22  C   UNL     1       5.509   0.280  -0.406  1.00  0.00     0.030 A 
ATOM     23  C   UNL     1       6.716   0.561   2.101  1.00  0.00     0.023 A 
ATOM     24  C   UNL     1       6.902   0.390  -0.299  1.00  0.00     0.023 A 
ATOM     25  C   UNL     1       7.498   0.530   0.952  1.00  0.00     0.041 A 
ATOM     26  Cl  UNL     1       9.208   0.664   1.075  1.00  0.00    -0.084 Cl
ENDBRANCH  18  20
ENDBRANCH   1  11
TORSDOF 4
