REMARK SMILES CC(=O)Nc1ccc(Nc2ncnc3c2c(-c2ccccc2)cn3-c2ccc(C)c(Cl)c2)cc1
REMARK SMILES IDX 9 1 8 3 5 4 6 5 34 6 7 7 33 8 4 9 2 10 3 11 1 12 10 14 11 15
REMARK SMILES IDX 15 16 12 17 14 18 16 19 13 20 24 21 23 22 17 23 18 24 22 25
REMARK SMILES IDX 19 26 21 27 20 28 25 29 26 30 32 31 27 32 30 33 28 34 31 35
REMARK SMILES IDX 29 36
REMARK H PARENT 9 2 4 13
ROOT
ATOM      1  N   UNL     1       1.445  -0.071   0.136  1.00  0.00    -0.340 N 
ATOM      2  H   UNL     1       1.175  -0.991  -0.187  1.00  0.00     0.168 HD
ENDROOT
BRANCH   1   3
ATOM      3  C   UNL     1       2.834   0.120   0.187  1.00  0.00     0.040 A 
ATOM      4  C   UNL     1       5.668   0.349   0.258  1.00  0.00     0.041 A 
ATOM      5  C   UNL     1       4.848   1.422   0.622  1.00  0.00     0.028 A 
ATOM      6  C   UNL     1       5.066  -0.840  -0.140  1.00  0.00     0.028 A 
ATOM      7  C   UNL     1       3.451   1.305   0.588  1.00  0.00     0.028 A 
ATOM      8  C   UNL     1       3.668  -0.950  -0.173  1.00  0.00     0.028 A 
BRANCH   4   9
ATOM      9  N   UNL     1       7.062   0.550   0.320  1.00  0.00    -0.326 N 
ATOM     10  C   UNL     1       8.058  -0.362   0.024  1.00  0.00     0.221 C 
ATOM     11  O   UNL     1       7.914  -1.527  -0.329  1.00  0.00    -0.275 OA
ATOM     12  C   UNL     1       9.437   0.220   0.211  1.00  0.00     0.114 C 
ATOM     13  H   UNL     1       7.360   1.468   0.625  1.00  0.00     0.169 HD
ENDBRANCH   4   9
ENDBRANCH   1   3
BRANCH   1  14
ATOM     14  C   UNL     1       0.347   0.770   0.374  1.00  0.00     0.143 A 
ATOM     15  N   UNL     1       0.516   2.076   0.693  1.00  0.00    -0.218 NA
ATOM     16  C   UNL     1      -0.982   0.289   0.281  1.00  0.00     0.070 A 
ATOM     17  C   UNL     1      -0.561   2.848   0.890  1.00  0.00     0.226 A 
ATOM     18  C   UNL     1      -2.019   1.200   0.486  1.00  0.00     0.150 A 
ATOM     19  C   UNL     1      -1.592  -0.969   0.017  1.00  0.00     0.013 A 
ATOM     20  N   UNL     1      -1.847   2.498   0.805  1.00  0.00    -0.218 NA
ATOM     21  N   UNL     1      -3.243   0.539   0.334  1.00  0.00    -0.300 N 
ATOM     22  C   UNL     1      -2.957  -0.788   0.053  1.00  0.00     0.103 A 
BRANCH  19  23
ATOM     23  C   UNL     1      -0.997  -2.265  -0.236  1.00  0.00    -0.016 A 
ATOM     24  C   UNL     1      -0.355  -2.953   0.801  1.00  0.00     0.009 A 
ATOM     25  C   UNL     1      -1.028  -2.817  -1.521  1.00  0.00     0.009 A 
ATOM     26  C   UNL     1       0.255  -4.183   0.550  1.00  0.00     0.001 A 
ATOM     27  C   UNL     1      -0.418  -4.047  -1.767  1.00  0.00     0.001 A 
ATOM     28  C   UNL     1       0.225  -4.728  -0.733  1.00  0.00     0.000 A 
ENDBRANCH  19  23
BRANCH  21  29
ATOM     29  C   UNL     1      -4.569   1.087   0.439  1.00  0.00     0.049 A 
ATOM     30  C   UNL     1      -4.790   2.469   0.468  1.00  0.00     0.027 A 
ATOM     31  C   UNL     1      -5.686   0.239   0.506  1.00  0.00     0.047 A 
ATOM     32  C   UNL     1      -6.087   2.989   0.564  1.00  0.00     0.007 A 
ATOM     33  C   UNL     1      -6.983   0.763   0.603  1.00  0.00     0.046 A 
ATOM     34  C   UNL     1      -7.201   2.145   0.633  1.00  0.00    -0.032 A 
ATOM     35  Cl  UNL     1      -8.299  -0.356   0.688  1.00  0.00    -0.084 Cl
ATOM     36  C   UNL     1      -8.577   2.737   0.736  1.00  0.00     0.046 C 
ENDBRANCH  21  29
ENDBRANCH   1  14
TORSDOF 5
