REMARK SMILES Cc1ccc(-n2ncc3c(NCCCN4CCOCC4)ncnc32)c(C)c1
REMARK SMILES IDX 11 1 10 3 6 4 7 5 24 6 8 7 23 8 9 9 22 10 21 11 5 12 2 13
REMARK SMILES IDX 3 14 27 15 4 16 25 17 1 18 26 19 12 20 13 21 14 22 15 23
REMARK SMILES IDX 16 24 20 25 17 26 19 27 18 28
REMARK H PARENT 11 2
ROOT
ATOM      1  N   UNL     1      -1.203  -1.068   0.843  1.00  0.00    -0.369 N 
ATOM      2  H   UNL     1      -1.144  -0.468   1.657  1.00  0.00     0.162 HD
ENDROOT
BRANCH   1   3
ATOM      3  C   UNL     1      -0.079  -0.945   0.022  1.00  0.00     0.140 A 
ATOM      4  N   UNL     1       3.358  -0.089   0.405  1.00  0.00    -0.214 N 
ATOM      5  N   UNL     1       3.006   0.078   1.716  1.00  0.00    -0.174 NA
ATOM      6  C   UNL     1       2.242  -0.478  -0.353  1.00  0.00     0.168 A 
ATOM      7  C   UNL     1       1.715  -0.233   1.774  1.00  0.00     0.150 A 
ATOM      8  N   UNL     1       2.164  -0.709  -1.681  1.00  0.00    -0.216 NA
ATOM      9  C   UNL     1       1.175  -0.571   0.528  1.00  0.00     0.082 A 
ATOM     10  C   UNL     1       0.933  -1.069  -2.066  1.00  0.00     0.226 A 
ATOM     11  N   UNL     1      -0.166  -1.201  -1.304  1.00  0.00    -0.219 NA
BRANCH   4  12
ATOM     12  C   UNL     1       4.720   0.112  -0.023  1.00  0.00     0.070 A 
ATOM     13  C   UNL     1       7.384   0.430  -0.968  1.00  0.00    -0.051 A 
ATOM     14  C   UNL     1       6.417  -0.167  -1.770  1.00  0.00     0.005 A 
ATOM     15  C   UNL     1       7.022   0.851   0.315  1.00  0.00     0.009 A 
ATOM     16  C   UNL     1       5.106  -0.320  -1.306  1.00  0.00     0.029 A 
ATOM     17  C   UNL     1       5.703   0.715   0.804  1.00  0.00    -0.025 A 
ATOM     18  C   UNL     1       8.799   0.562  -1.444  1.00  0.00     0.044 C 
ATOM     19  C   UNL     1       5.452   1.247   2.193  1.00  0.00     0.047 C 
ENDBRANCH   4  12
ENDBRANCH   1   3
BRANCH   1  20
ATOM     20  C   UNL     1      -2.492  -1.017   0.156  1.00  0.00     0.116 C 
BRANCH  20  21
ATOM     21  C   UNL     1      -3.611  -1.231   1.179  1.00  0.00     0.037 C 
BRANCH  21  22
ATOM     22  C   UNL     1      -4.997  -1.300   0.527  1.00  0.00     0.086 C 
BRANCH  22  23
ATOM     23  N   UNL     1      -5.365  -0.073  -0.190  1.00  0.00    -0.299 NA
ATOM     24  C   UNL     1      -5.718   1.051   0.706  1.00  0.00     0.113 C 
ATOM     25  C   UNL     1      -6.463  -0.337  -1.147  1.00  0.00     0.113 C 
ATOM     26  C   UNL     1      -7.231   1.310   0.810  1.00  0.00     0.175 C 
ATOM     27  C   UNL     1      -7.183   0.956  -1.556  1.00  0.00     0.175 C 
ATOM     28  O   UNL     1      -7.845   1.593  -0.454  1.00  0.00    -0.379 OA
ENDBRANCH  22  23
ENDBRANCH  21  22
ENDBRANCH  20  21
ENDBRANCH   1  20
TORSDOF 6
