REMARK SMILES Fc1ccc(-n2ncc3c(Nc4ccc(Oc5ccc(Cl)cc5)cc4)ncnc32)cc1
REMARK SMILES IDX 12 1 13 2 14 3 15 4 24 5 25 6 11 7 10 9 6 10 7 11 29 12 8 13
REMARK SMILES IDX 28 14 9 15 27 16 26 17 5 18 2 19 3 20 31 21 4 22 30 23 1 24
REMARK SMILES IDX 16 25 17 26 18 27 23 28 19 29 22 30 20 31 21 32
REMARK H PARENT 11 8
ROOT
ATOM      1  C   UNL     1      -1.339   0.471  -0.567  1.00  0.00     0.040 A 
ATOM      2  C   UNL     1      -1.807  -0.762  -1.033  1.00  0.00     0.030 A 
ATOM      3  C   UNL     1      -3.173  -0.990  -1.239  1.00  0.00     0.049 A 
ATOM      4  C   UNL     1      -4.097   0.012  -0.962  1.00  0.00     0.127 A 
ATOM      5  C   UNL     1      -3.658   1.256  -0.517  1.00  0.00     0.049 A 
ATOM      6  C   UNL     1      -2.291   1.476  -0.314  1.00  0.00     0.030 A 
ENDROOT
BRANCH   1   7
ATOM      7  N   UNL     1       0.016   0.761  -0.326  1.00  0.00    -0.340 N 
ATOM      8  H   UNL     1       0.183   1.721  -0.061  1.00  0.00     0.168 HD
BRANCH   7   9
ATOM      9  C   UNL     1       1.182  -0.016  -0.396  1.00  0.00     0.144 A 
ATOM     10  N   UNL     1       4.669   0.519   0.073  1.00  0.00    -0.215 N 
ATOM     11  N   UNL     1       4.289   1.810   0.330  1.00  0.00    -0.174 NA
ATOM     12  C   UNL     1       3.562  -0.280  -0.219  1.00  0.00     0.168 A 
ATOM     13  C   UNL     1       2.965   1.804   0.196  1.00  0.00     0.150 A 
ATOM     14  N   UNL     1       3.536  -1.594  -0.520  1.00  0.00    -0.216 NA
ATOM     15  C   UNL     1       2.448   0.543  -0.142  1.00  0.00     0.082 A 
ATOM     16  C   UNL     1       2.293  -2.038  -0.744  1.00  0.00     0.226 A 
ATOM     17  N   UNL     1       1.147  -1.338  -0.698  1.00  0.00    -0.218 NA
BRANCH  10  18
ATOM     18  C   UNL     1       6.055   0.171   0.131  1.00  0.00     0.067 A 
ATOM     19  C   UNL     1       8.784  -0.433   0.264  1.00  0.00     0.123 A 
ATOM     20  C   UNL     1       7.872  -1.431  -0.054  1.00  0.00     0.041 A 
ATOM     21  C   UNL     1       8.360   0.863   0.518  1.00  0.00     0.041 A 
ATOM     22  C   UNL     1       6.506  -1.133  -0.122  1.00  0.00     0.031 A 
ATOM     23  C   UNL     1       6.997   1.168   0.452  1.00  0.00     0.031 A 
ATOM     24  F   UNL     1      10.089  -0.727   0.327  1.00  0.00    -0.207 F 
ENDBRANCH  10  18
ENDBRANCH   7   9
ENDBRANCH   1   7
BRANCH   4  25
ATOM     25  O   UNL     1      -5.421  -0.262  -1.214  1.00  0.00    -0.457 OA
BRANCH  25  26
ATOM     26  C   UNL     1      -6.329   0.062  -0.232  1.00  0.00     0.127 A 
ATOM     27  C   UNL     1      -7.509   0.685  -0.644  1.00  0.00     0.048 A 
ATOM     28  C   UNL     1      -6.140  -0.270   1.113  1.00  0.00     0.048 A 
ATOM     29  C   UNL     1      -8.488   1.012   0.296  1.00  0.00     0.024 A 
ATOM     30  C   UNL     1      -7.121   0.058   2.052  1.00  0.00     0.024 A 
ATOM     31  C   UNL     1      -8.288   0.700   1.640  1.00  0.00     0.041 A 
ATOM     32  Cl  UNL     1      -9.495   1.104   2.799  1.00  0.00    -0.084 Cl
ENDBRANCH  25  26
ENDBRANCH   4  25
TORSDOF 5
