REMARK SMILES Cc1ccc(Cl)cc1-n1ncc2c(Nc3ccc4c(c3)OCCO4)ncnc21
REMARK SMILES IDX 9 1 10 2 11 3 12 4 13 5 25 6 26 7 27 8 28 9 8 10 2 11 3 12
REMARK SMILES IDX 4 13 7 14 5 15 1 16 6 17 14 18 15 20 16 21 20 22 17 23 19 24
REMARK SMILES IDX 18 25 21 26 24 27 22 28 23 29
REMARK H PARENT 14 19
ROOT
ATOM      1  N   UNL     1      -2.595   0.487  -0.421  1.00  0.00    -0.214 N 
ATOM      2  N   UNL     1      -1.738   1.427   0.087  1.00  0.00    -0.174 NA
ATOM      3  C   UNL     1      -0.539   1.070  -0.371  1.00  0.00     0.150 A 
ATOM      4  C   UNL     1      -0.586  -0.045  -1.222  1.00  0.00     0.082 A 
ATOM      5  C   UNL     1       0.314  -0.793  -1.993  1.00  0.00     0.144 A 
ATOM      6  N   UNL     1      -0.190  -1.742  -2.815  1.00  0.00    -0.218 NA
ATOM      7  C   UNL     1      -1.519  -1.947  -2.825  1.00  0.00     0.226 A 
ATOM      8  N   UNL     1      -2.454  -1.320  -2.098  1.00  0.00    -0.216 NA
ATOM      9  C   UNL     1      -1.930  -0.377  -1.290  1.00  0.00     0.168 A 
ENDROOT
BRANCH   1  10
ATOM     10  C   UNL     1      -3.980   0.556  -0.071  1.00  0.00     0.071 A 
ATOM     11  C   UNL     1      -4.843  -0.559   0.003  1.00  0.00    -0.025 A 
ATOM     12  C   UNL     1      -6.210  -0.337   0.272  1.00  0.00     0.007 A 
ATOM     13  C   UNL     1      -6.705   0.943   0.525  1.00  0.00     0.021 A 
ATOM     14  C   UNL     1      -4.487   1.839   0.232  1.00  0.00     0.049 A 
ATOM     15  C   UNL     1      -5.837   2.024   0.520  1.00  0.00     0.043 A 
ATOM     16  C   UNL     1      -4.419  -1.998  -0.113  1.00  0.00     0.047 C 
ATOM     17  Cl  UNL     1      -6.436   3.602   0.853  1.00  0.00    -0.084 Cl
ENDBRANCH   1  10
BRANCH   5  18
ATOM     18  N   UNL     1       1.698  -0.582  -2.047  1.00  0.00    -0.339 N 
ATOM     19  H   UNL     1       2.080  -1.206  -2.754  1.00  0.00     0.168 HD
BRANCH  18  20
ATOM     20  C   UNL     1       2.610  -0.384  -0.990  1.00  0.00     0.044 A 
ATOM     21  C   UNL     1       2.318  -0.691   0.345  1.00  0.00     0.030 A 
ATOM     22  C   UNL     1       3.881   0.123  -1.297  1.00  0.00     0.076 A 
ATOM     23  C   UNL     1       3.261  -0.468   1.355  1.00  0.00     0.052 A 
ATOM     24  C   UNL     1       4.827   0.334  -0.294  1.00  0.00     0.163 A 
ATOM     25  C   UNL     1       4.508   0.060   1.037  1.00  0.00     0.161 A 
ATOM     26  O   UNL     1       6.047   0.821  -0.689  1.00  0.00    -0.486 OA
ATOM     27  O   UNL     1       5.373   0.274   2.079  1.00  0.00    -0.486 OA
ATOM     28  C   UNL     1       7.026   0.678   0.347  1.00  0.00     0.271 C 
ATOM     29  C   UNL     1       6.460   1.120   1.686  1.00  0.00     0.271 C 
ENDBRANCH  18  20
ENDBRANCH   5  18
TORSDOF 3
