REMARK SMILES Cc1ccc(-n2ncc3c(N4CCN(C)CC4)ncnc32)cc1C
REMARK SMILES IDX 6 1 7 2 8 3 9 4 10 5 18 6 19 7 20 8 21 9 5 10 2 11 3 12
REMARK SMILES IDX 23 13 4 14 22 15 1 16 24 17 11 18 12 19 17 20 13 21 16 22
REMARK SMILES IDX 14 23 15 24
REMARK H PARENT
ROOT
ATOM      1  N   UNL     1       1.502  -0.836  -0.090  1.00  0.00    -0.215 N 
ATOM      2  N   UNL     1       0.879  -2.047   0.067  1.00  0.00    -0.174 NA
ATOM      3  C   UNL     1      -0.420  -1.769  -0.024  1.00  0.00     0.150 A 
ATOM      4  C   UNL     1      -0.683  -0.404  -0.209  1.00  0.00     0.082 A 
ATOM      5  C   UNL     1      -1.818   0.411  -0.357  1.00  0.00     0.143 A 
ATOM      6  N   UNL     1      -1.606   1.731  -0.587  1.00  0.00    -0.219 NA
ATOM      7  C   UNL     1      -0.344   2.194  -0.627  1.00  0.00     0.226 A 
ATOM      8  N   UNL     1       0.793   1.504  -0.471  1.00  0.00    -0.216 NA
ATOM      9  C   UNL     1       0.570   0.189  -0.270  1.00  0.00     0.168 A 
ENDROOT
BRANCH   1  10
ATOM     10  C   UNL     1       2.930  -0.772  -0.053  1.00  0.00     0.067 A 
ATOM     11  C   UNL     1       5.757  -0.722   0.034  1.00  0.00    -0.048 A 
ATOM     12  C   UNL     1       5.057  -1.926   0.181  1.00  0.00     0.006 A 
ATOM     13  C   UNL     1       5.035   0.471  -0.159  1.00  0.00    -0.046 A 
ATOM     14  C   UNL     1       3.661  -1.953   0.139  1.00  0.00     0.029 A 
ATOM     15  C   UNL     1       3.627   0.434  -0.200  1.00  0.00     0.032 A 
ATOM     16  C   UNL     1       7.260  -0.733   0.085  1.00  0.00     0.044 C 
ATOM     17  C   UNL     1       5.739   1.792  -0.323  1.00  0.00     0.044 C 
ENDBRANCH   1  10
BRANCH   5  18
ATOM     18  N   UNL     1      -3.125  -0.104  -0.307  1.00  0.00    -0.353 N 
ATOM     19  C   UNL     1      -4.120   0.785  -0.945  1.00  0.00     0.133 C 
ATOM     20  C   UNL     1      -3.509  -0.479   1.071  1.00  0.00     0.133 C 
ATOM     21  C   UNL     1      -5.525   0.137  -0.898  1.00  0.00     0.105 C 
ATOM     22  C   UNL     1      -4.933  -1.091   1.089  1.00  0.00     0.105 C 
ATOM     23  N   UNL     1      -5.987  -0.273   0.449  1.00  0.00    -0.303 NA
ATOM     24  C   UNL     1      -6.345   0.881   1.269  1.00  0.00     0.105 C 
ENDBRANCH   5  18
TORSDOF 2
