REMARK SMILES Cc1ccc(-n2ncc3c(NCCC4=CCCCC4)ncnc32)cc1C
REMARK SMILES IDX 11 1 10 3 6 4 7 5 23 6 8 7 22 8 9 9 21 10 20 11 5 12 2 13
REMARK SMILES IDX 3 14 25 15 4 16 24 17 1 18 26 19 12 20 13 21 14 22 15 23
REMARK SMILES IDX 19 24 16 25 18 26 17 27
REMARK H PARENT 11 2
ROOT
ATOM      1  N   UNL     1      -2.008   2.142  -1.582  1.00  0.00    -0.369 N 
ATOM      2  H   UNL     1      -2.278   2.124  -0.605  1.00  0.00     0.162 HD
ENDROOT
BRANCH   1   3
ATOM      3  C   UNL     1      -0.794   1.494  -1.808  1.00  0.00     0.140 A 
ATOM      4  N   UNL     1       2.099   0.640   0.070  1.00  0.00    -0.215 N 
ATOM      5  N   UNL     1       1.432   1.252   1.100  1.00  0.00    -0.174 NA
ATOM      6  C   UNL     1       1.343   0.671  -1.104  1.00  0.00     0.168 A 
ATOM      7  C   UNL     1       0.285   1.661   0.563  1.00  0.00     0.150 A 
ATOM      8  N   UNL     1       1.656   0.178  -2.320  1.00  0.00    -0.216 NA
ATOM      9  C   UNL     1       0.161   1.328  -0.794  1.00  0.00     0.082 A 
ATOM     10  C   UNL     1       0.689   0.396  -3.222  1.00  0.00     0.226 A 
ATOM     11  N   UNL     1      -0.492   1.010  -3.035  1.00  0.00    -0.219 NA
BRANCH   4  12
ATOM     12  C   UNL     1       3.394   0.081   0.303  1.00  0.00     0.067 A 
ATOM     13  C   UNL     1       5.950  -1.002   0.845  1.00  0.00    -0.048 A 
ATOM     14  C   UNL     1       5.384  -1.089  -0.435  1.00  0.00     0.006 A 
ATOM     15  C   UNL     1       5.229  -0.364   1.870  1.00  0.00    -0.046 A 
ATOM     16  C   UNL     1       4.120  -0.555  -0.706  1.00  0.00     0.029 A 
ATOM     17  C   UNL     1       3.958   0.171   1.588  1.00  0.00     0.032 A 
ATOM     18  C   UNL     1       7.312  -1.590   1.090  1.00  0.00     0.044 C 
ATOM     19  C   UNL     1       5.786  -0.239   3.262  1.00  0.00     0.044 C 
ENDBRANCH   4  12
ENDBRANCH   1   3
BRANCH   1  20
ATOM     20  C   UNL     1      -3.109   1.827  -2.493  1.00  0.00     0.119 C 
BRANCH  20  21
ATOM     21  C   UNL     1      -3.725   0.445  -2.206  1.00  0.00     0.052 C 
BRANCH  21  22
ATOM     22  C   UNL     1      -4.382   0.215  -0.851  1.00  0.00    -0.072 C 
ATOM     23  C   UNL     1      -4.794   1.188  -0.016  1.00  0.00    -0.028 C 
ATOM     24  C   UNL     1      -4.562  -1.247  -0.493  1.00  0.00     0.031 C 
ATOM     25  C   UNL     1      -5.409   0.935   1.332  1.00  0.00     0.027 C 
ATOM     26  C   UNL     1      -5.506  -1.490   0.686  1.00  0.00     0.005 C 
ATOM     27  C   UNL     1      -5.237  -0.504   1.815  1.00  0.00     0.004 C 
ENDBRANCH  21  22
ENDBRANCH  20  21
ENDBRANCH   1  20
TORSDOF 5
