REMARK SMILES Cc1ccc(-n2ncc3c(N4CCN(C)CC4)ncnc32)cc1Cl
REMARK SMILES IDX 6 1 7 2 8 3 9 4 10 5 18 6 19 7 20 8 21 9 5 10 2 11 3 12
REMARK SMILES IDX 23 13 4 14 22 15 1 16 24 17 11 18 12 19 17 20 13 21 16 22
REMARK SMILES IDX 14 23 15 24
REMARK H PARENT
ROOT
ATOM      1  N   UNL     1      -2.007   0.235   0.410  1.00  0.00    -0.215 N 
ATOM      2  N   UNL     1      -1.378   1.036   1.325  1.00  0.00    -0.174 NA
ATOM      3  C   UNL     1      -0.082   0.767   1.168  1.00  0.00     0.150 A 
ATOM      4  C   UNL     1       0.170  -0.166   0.151  1.00  0.00     0.082 A 
ATOM      5  C   UNL     1       1.298  -0.783  -0.420  1.00  0.00     0.143 A 
ATOM      6  N   UNL     1       1.068  -1.722  -1.372  1.00  0.00    -0.219 NA
ATOM      7  C   UNL     1      -0.197  -1.986  -1.745  1.00  0.00     0.226 A 
ATOM      8  N   UNL     1      -1.325  -1.430  -1.284  1.00  0.00    -0.216 NA
ATOM      9  C   UNL     1      -1.086  -0.521  -0.316  1.00  0.00     0.168 A 
ENDROOT
BRANCH   1  10
ATOM     10  C   UNL     1      -3.434   0.266   0.316  1.00  0.00     0.069 A 
ATOM     11  C   UNL     1      -6.260   0.387   0.190  1.00  0.00    -0.032 A 
ATOM     12  C   UNL     1      -5.552   1.171   1.109  1.00  0.00     0.007 A 
ATOM     13  C   UNL     1      -5.536  -0.457  -0.664  1.00  0.00     0.046 A 
ATOM     14  C   UNL     1      -4.157   1.113   1.172  1.00  0.00     0.029 A 
ATOM     15  C   UNL     1      -4.137  -0.519  -0.604  1.00  0.00     0.049 A 
ATOM     16  C   UNL     1      -7.760   0.471   0.145  1.00  0.00     0.046 C 
ATOM     17  Cl  UNL     1      -6.336  -1.456  -1.827  1.00  0.00    -0.084 Cl
ENDBRANCH   1  10
BRANCH   5  18
ATOM     18  N   UNL     1       2.601  -0.486  -0.014  1.00  0.00    -0.353 N 
ATOM     19  C   UNL     1       3.047   0.870  -0.361  1.00  0.00     0.133 C 
ATOM     20  C   UNL     1       3.606  -1.535  -0.295  1.00  0.00     0.133 C 
ATOM     21  C   UNL     1       4.352   1.227   0.402  1.00  0.00     0.105 C 
ATOM     22  C   UNL     1       5.056  -0.979  -0.329  1.00  0.00     0.105 C 
ATOM     23  N   UNL     1       5.283   0.103   0.638  1.00  0.00    -0.303 NA
ATOM     24  C   UNL     1       6.671   0.545   0.654  1.00  0.00     0.105 C 
ENDBRANCH   5  18
TORSDOF 2
