REMARK SMILES Cc1ccc(Cl)cc1-n1ncc2c(NC3CCCCC3)ncnc21
REMARK SMILES IDX 9 1 10 2 11 3 12 4 13 5 21 6 22 7 23 8 24 9 8 10 2 11 3 12
REMARK SMILES IDX 4 13 7 14 5 15 1 16 6 17 14 18 15 20 16 21 20 22 17 23 19 24
REMARK SMILES IDX 18 25
REMARK H PARENT 14 19
ROOT
ATOM      1  N   UNL     1       2.492   0.393   0.754  1.00  0.00    -0.214 N 
ATOM      2  N   UNL     1       1.839   1.204   1.645  1.00  0.00    -0.174 NA
ATOM      3  C   UNL     1       0.568   0.812   1.585  1.00  0.00     0.150 A 
ATOM      4  C   UNL     1       0.339  -0.163   0.603  1.00  0.00     0.082 A 
ATOM      5  C   UNL     1      -0.761  -0.863   0.086  1.00  0.00     0.140 A 
ATOM      6  N   UNL     1      -0.530  -1.722  -0.934  1.00  0.00    -0.219 NA
ATOM      7  C   UNL     1       0.720  -1.844  -1.415  1.00  0.00     0.226 A 
ATOM      8  N   UNL     1       1.829  -1.221  -0.993  1.00  0.00    -0.216 NA
ATOM      9  C   UNL     1       1.589  -0.404   0.052  1.00  0.00     0.168 A 
ENDROOT
BRANCH   1  10
ATOM     10  C   UNL     1       3.910   0.515   0.621  1.00  0.00     0.071 A 
ATOM     11  C   UNL     1       4.773  -0.540   0.254  1.00  0.00    -0.025 A 
ATOM     12  C   UNL     1       6.144  -0.258   0.071  1.00  0.00     0.007 A 
ATOM     13  C   UNL     1       6.663   1.015   0.306  1.00  0.00     0.021 A 
ATOM     14  C   UNL     1       4.458   1.787   0.899  1.00  0.00     0.049 A 
ATOM     15  C   UNL     1       5.820   2.029   0.735  1.00  0.00     0.043 A 
ATOM     16  C   UNL     1       4.371  -1.982   0.104  1.00  0.00     0.047 C 
ATOM     17  Cl  UNL     1       6.457   3.596   1.048  1.00  0.00    -0.084 Cl
ENDBRANCH   1  10
BRANCH   5  18
ATOM     18  N   UNL     1      -2.047  -0.695   0.590  1.00  0.00    -0.367 N 
ATOM     19  H   UNL     1      -2.184   0.181   1.080  1.00  0.00     0.162 HD
BRANCH  18  20
ATOM     20  C   UNL     1      -3.177  -1.128  -0.234  1.00  0.00     0.080 C 
ATOM     21  C   UNL     1      -3.402  -0.131  -1.389  1.00  0.00     0.025 C 
ATOM     22  C   UNL     1      -4.418  -1.266   0.672  1.00  0.00     0.025 C 
ATOM     23  C   UNL     1      -4.866  -0.059  -1.804  1.00  0.00     0.002 C 
ATOM     24  C   UNL     1      -5.237   0.019   0.725  1.00  0.00     0.002 C 
ATOM     25  C   UNL     1      -5.756   0.420  -0.657  1.00  0.00     0.000 C 
ENDBRANCH  18  20
ENDBRANCH   5  18
TORSDOF 3
