REMARK SMILES Cc1ccc(Cl)cc1-n1ncc2c(NCc3ccc(F)cc3)ncnc21
REMARK SMILES IDX 14 1 13 3 9 4 10 5 26 6 11 7 25 8 12 9 24 10 23 11 8 12 2 13
REMARK SMILES IDX 3 14 4 15 7 16 5 17 1 18 6 19 15 20 16 21 17 22 22 23 18 24
REMARK SMILES IDX 21 25 19 26 20 27
REMARK H PARENT 14 2
ROOT
ATOM      1  N   UNL     1       2.243   0.344  -0.069  1.00  0.00    -0.365 N 
ATOM      2  H   UNL     1       2.234  -0.637   0.186  1.00  0.00     0.162 HD
ENDROOT
BRANCH   1   3
ATOM      3  C   UNL     1       0.989   0.945  -0.006  1.00  0.00     0.140 A 
ATOM      4  N   UNL     1      -2.416  -0.058  -0.288  1.00  0.00    -0.214 N 
ATOM      5  N   UNL     1      -1.873  -1.302  -0.447  1.00  0.00    -0.174 NA
ATOM      6  C   UNL     1      -1.404   0.895  -0.098  1.00  0.00     0.168 A 
ATOM      7  C   UNL     1      -0.557  -1.118  -0.397  1.00  0.00     0.150 A 
ATOM      8  N   UNL     1      -1.529   2.219   0.131  1.00  0.00    -0.216 NA
ATOM      9  C   UNL     1      -0.198   0.215  -0.167  1.00  0.00     0.082 A 
ATOM     10  C   UNL     1      -0.344   2.830   0.260  1.00  0.00     0.226 A 
ATOM     11  N   UNL     1       0.881   2.278   0.203  1.00  0.00    -0.219 NA
BRANCH   4  12
ATOM     12  C   UNL     1      -3.843   0.134  -0.349  1.00  0.00     0.071 A 
ATOM     13  C   UNL     1      -4.764  -0.946  -0.303  1.00  0.00    -0.025 A 
ATOM     14  C   UNL     1      -6.147  -0.674  -0.399  1.00  0.00     0.007 A 
ATOM     15  C   UNL     1      -6.624   0.627  -0.525  1.00  0.00     0.021 A 
ATOM     16  C   UNL     1      -4.351   1.443  -0.478  1.00  0.00     0.049 A 
ATOM     17  C   UNL     1      -5.724   1.679  -0.562  1.00  0.00     0.043 A 
ATOM     18  C   UNL     1      -4.382  -2.397  -0.140  1.00  0.00     0.047 C 
ATOM     19  Cl  UNL     1      -6.306   3.292  -0.727  1.00  0.00    -0.084 Cl
ENDBRANCH   4  12
ENDBRANCH   1   3
BRANCH   1  20
ATOM     20  C   UNL     1       3.337   1.103   0.513  1.00  0.00     0.150 C 
BRANCH  20  21
ATOM     21  C   UNL     1       4.597   0.267   0.449  1.00  0.00    -0.029 A 
ATOM     22  C   UNL     1       5.111  -0.344   1.604  1.00  0.00     0.008 A 
ATOM     23  C   UNL     1       5.251   0.070  -0.778  1.00  0.00     0.008 A 
ATOM     24  C   UNL     1       6.265  -1.126   1.532  1.00  0.00     0.039 A 
ATOM     25  C   UNL     1       6.404  -0.713  -0.847  1.00  0.00     0.039 A 
ATOM     26  C   UNL     1       6.901  -1.303   0.309  1.00  0.00     0.123 A 
ATOM     27  F   UNL     1       8.007  -2.055   0.243  1.00  0.00    -0.207 F 
ENDBRANCH  20  21
ENDBRANCH   1  20
TORSDOF 4
