REMARK SMILES CCc1ccc(Nc2ncnc3c2cnn3-c2cc(Cl)ccc2C)cc1
REMARK SMILES IDX 7 1 6 3 3 4 4 5 26 6 5 7 25 8 2 9 1 10 8 11 9 12 13 13 10 14
REMARK SMILES IDX 12 15 14 16 11 17 16 18 15 19 17 20 18 21 23 22 19 23 22 24
REMARK SMILES IDX 21 25 24 26 20 27
REMARK H PARENT 7 2
ROOT
ATOM      1  N   UNL     1       1.384  -1.171  -0.075  1.00  0.00    -0.340 N 
ATOM      2  H   UNL     1       1.243  -1.989  -0.650  1.00  0.00     0.168 HD
ENDROOT
BRANCH   1   3
ATOM      3  C   UNL     1       2.726  -0.969   0.294  1.00  0.00     0.040 A 
ATOM      4  C   UNL     1       5.473  -0.692   0.968  1.00  0.00    -0.048 A 
ATOM      5  C   UNL     1       4.528   0.239   1.408  1.00  0.00     0.006 A 
ATOM      6  C   UNL     1       5.040  -1.760   0.180  1.00  0.00     0.006 A 
ATOM      7  C   UNL     1       3.175   0.098   1.076  1.00  0.00     0.026 A 
ATOM      8  C   UNL     1       3.686  -1.895  -0.148  1.00  0.00     0.026 A 
BRANCH   4   9
ATOM      9  C   UNL     1       6.930  -0.529   1.312  1.00  0.00     0.032 C 
ATOM     10  C   UNL     1       7.668   0.301   0.272  1.00  0.00     0.009 C 
ENDBRANCH   4   9
ENDBRANCH   1   3
BRANCH   1  11
ATOM     11  C   UNL     1       0.204  -0.461   0.195  1.00  0.00     0.144 A 
ATOM     12  N   UNL     1       0.196   0.658   0.961  1.00  0.00    -0.218 NA
ATOM     13  C   UNL     1      -1.036  -0.891  -0.311  1.00  0.00     0.082 A 
ATOM     14  C   UNL     1      -0.967   1.282   1.211  1.00  0.00     0.226 A 
ATOM     15  C   UNL     1      -2.165  -0.137  -0.023  1.00  0.00     0.168 A 
ATOM     16  C   UNL     1      -1.519  -1.971  -1.066  1.00  0.00     0.150 A 
ATOM     17  N   UNL     1      -2.186   0.953   0.767  1.00  0.00    -0.216 NA
ATOM     18  N   UNL     1      -3.236  -0.764  -0.659  1.00  0.00    -0.214 N 
ATOM     19  N   UNL     1      -2.839  -1.941  -1.238  1.00  0.00    -0.174 NA
BRANCH  18  20
ATOM     20  C   UNL     1      -4.616  -0.395  -0.722  1.00  0.00     0.071 A 
ATOM     21  C   UNL     1      -5.545  -1.457  -0.793  1.00  0.00     0.049 A 
ATOM     22  C   UNL     1      -5.089   0.935  -0.734  1.00  0.00    -0.025 A 
ATOM     23  C   UNL     1      -6.915  -1.208  -0.791  1.00  0.00     0.043 A 
ATOM     24  C   UNL     1      -6.483   1.154  -0.706  1.00  0.00     0.007 A 
ATOM     25  C   UNL     1      -7.389   0.094  -0.731  1.00  0.00     0.021 A 
ATOM     26  C   UNL     1      -4.230   2.165  -0.845  1.00  0.00     0.047 C 
ATOM     27  Cl  UNL     1      -8.027  -2.520  -0.845  1.00  0.00    -0.084 Cl
ENDBRANCH  18  20
ENDBRANCH   1  11
TORSDOF 4
