REMARK SMILES CC(=O)c1ccc(N2CCN(c3ncnc4c3cnn4-c3cc(Cl)ccc3C)CC2)cc1
REMARK SMILES IDX 8 1 9 2 10 3 11 4 29 5 30 6 7 7 4 8 5 9 32 10 6 11 31 12
REMARK SMILES IDX 2 13 3 14 1 15 12 16 13 17 17 18 14 19 16 20 18 21 15 22
REMARK SMILES IDX 20 23 19 24 21 25 22 26 27 27 23 28 26 29 25 30 28 31 24 32
REMARK H PARENT
ROOT
ATOM      1  N   UNL     1       2.841   0.927   0.649  1.00  0.00    -0.368 N 
ATOM      2  C   UNL     1       2.322   1.914  -0.340  1.00  0.00     0.138 C 
ATOM      3  C   UNL     1       1.230   2.816   0.287  1.00  0.00     0.139 C 
ATOM      4  N   UNL     1       0.158   2.058   0.977  1.00  0.00    -0.352 N 
ATOM      5  C   UNL     1       0.713   1.070   1.933  1.00  0.00     0.139 C 
ATOM      6  C   UNL     1       1.754   0.137   1.271  1.00  0.00     0.138 C 
ENDROOT
BRANCH   1   7
ATOM      7  C   UNL     1       3.986   0.245   0.209  1.00  0.00     0.037 A 
ATOM      8  C   UNL     1       6.368  -1.043  -0.663  1.00  0.00     0.017 A 
ATOM      9  C   UNL     1       6.335   0.341  -0.480  1.00  0.00     0.014 A 
ATOM     10  C   UNL     1       5.214  -1.785  -0.403  1.00  0.00     0.014 A 
ATOM     11  C   UNL     1       5.162   0.969  -0.047  1.00  0.00     0.026 A 
ATOM     12  C   UNL     1       4.043  -1.144   0.031  1.00  0.00     0.026 A 
BRANCH   8  13
ATOM     13  C   UNL     1       7.639  -1.674  -1.127  1.00  0.00     0.159 C 
ATOM     14  O   UNL     1       8.621  -0.974  -1.364  1.00  0.00    -0.295 OA
ATOM     15  C   UNL     1       7.690  -3.170  -1.297  1.00  0.00     0.093 C 
ENDBRANCH   8  13
ENDBRANCH   1   7
BRANCH   4  16
ATOM     16  C   UNL     1      -0.836   1.541   0.137  1.00  0.00     0.143 A 
ATOM     17  N   UNL     1      -0.633   1.469  -1.202  1.00  0.00    -0.219 NA
ATOM     18  C   UNL     1      -2.092   1.126   0.614  1.00  0.00     0.082 A 
ATOM     19  C   UNL     1      -1.605   0.976  -1.990  1.00  0.00     0.226 A 
ATOM     20  C   UNL     1      -3.012   0.620  -0.292  1.00  0.00     0.168 A 
ATOM     21  C   UNL     1      -2.763   1.103   1.843  1.00  0.00     0.150 A 
ATOM     22  N   UNL     1      -2.809   0.522  -1.622  1.00  0.00    -0.216 NA
ATOM     23  N   UNL     1      -4.158   0.280   0.442  1.00  0.00    -0.214 N 
ATOM     24  N   UNL     1      -3.990   0.594   1.760  1.00  0.00    -0.174 NA
BRANCH  23  25
ATOM     25  C   UNL     1      -5.374  -0.342  -0.016  1.00  0.00     0.071 A 
ATOM     26  C   UNL     1      -5.394  -0.944  -1.290  1.00  0.00     0.049 A 
ATOM     27  C   UNL     1      -6.553  -0.390   0.775  1.00  0.00    -0.025 A 
ATOM     28  C   UNL     1      -6.540  -1.581  -1.768  1.00  0.00     0.043 A 
ATOM     29  C   UNL     1      -7.693  -1.049   0.266  1.00  0.00     0.007 A 
ATOM     30  C   UNL     1      -7.689  -1.638  -0.996  1.00  0.00     0.021 A 
ATOM     31  C   UNL     1      -6.699   0.234   2.140  1.00  0.00     0.047 C 
ATOM     32  Cl  UNL     1      -6.524  -2.316  -3.326  1.00  0.00    -0.084 Cl
ENDBRANCH  23  25
ENDBRANCH   4  16
TORSDOF 4
