REMARK SMILES N=c1c(C(=O)NCCN2CCOCC2)cc2c(=O)n3ccccc3nc2n1Cc1ccc(F)cc1
REMARK SMILES IDX 1 1 2 2 3 3 15 4 16 5 17 6 18 7 19 8 20 9 21 10 22 11 23 12
REMARK SMILES IDX 24 13 25 14 26 15 27 16 4 18 5 19 6 20 7 22 8 23 9 24 10 25
REMARK SMILES IDX 14 26 11 27 13 28 12 29 28 30 29 31 30 32 35 33 31 34 34 35
REMARK SMILES IDX 32 36 33 37
REMARK H PARENT 1 17 6 21
ROOT
ATOM      1  N   UNL     1      -0.121   0.569  -2.515  1.00  0.00    -0.284 NA
ATOM      2  C   UNL     1      -0.749  -0.172  -1.644  1.00  0.00     0.139 C 
ATOM      3  C   UNL     1       0.032  -1.057  -0.699  1.00  0.00     0.083 C 
ATOM      4  C   UNL     1      -0.704  -1.885   0.063  1.00  0.00     0.035 C 
ATOM      5  C   UNL     1      -2.159  -1.894   0.044  1.00  0.00     0.084 C 
ATOM      6  C   UNL     1      -2.891  -2.841   0.933  1.00  0.00     0.267 C 
ATOM      7  O   UNL     1      -2.256  -3.590   1.680  1.00  0.00    -0.268 OA
ATOM      8  N   UNL     1      -4.270  -2.806   0.856  1.00  0.00    -0.267 N 
ATOM      9  C   UNL     1      -5.025  -3.665   1.648  1.00  0.00     0.096 C 
ATOM     10  C   UNL     1      -6.363  -3.664   1.613  1.00  0.00     0.019 C 
ATOM     11  C   UNL     1      -7.054  -2.756   0.738  1.00  0.00     0.005 C 
ATOM     12  C   UNL     1      -6.368  -1.910  -0.040  1.00  0.00     0.048 C 
ATOM     13  C   UNL     1      -4.878  -1.908  -0.001  1.00  0.00     0.142 C 
ATOM     14  N   UNL     1      -4.241  -1.077  -0.761  1.00  0.00    -0.212 NA
ATOM     15  C   UNL     1      -2.864  -1.055  -0.748  1.00  0.00     0.149 C 
ATOM     16  N   UNL     1      -2.150  -0.157  -1.579  1.00  0.00    -0.306 N 
ATOM     17  H   UNL     1       0.900   0.404  -2.460  1.00  0.00     0.189 HD
ENDROOT
BRANCH   3  18
ATOM     18  C   UNL     1       1.522  -1.063  -0.660  1.00  0.00     0.255 C 
ATOM     19  O   UNL     1       2.176  -0.708  -1.636  1.00  0.00    -0.269 OA
ATOM     20  N   UNL     1       2.099  -1.413   0.539  1.00  0.00    -0.351 N 
ATOM     21  H   UNL     1       1.530  -1.513   1.369  1.00  0.00     0.163 HD
BRANCH  20  22
ATOM     22  C   UNL     1       3.541  -1.368   0.722  1.00  0.00     0.131 C 
BRANCH  22  23
ATOM     23  C   UNL     1       4.065   0.069   0.917  1.00  0.00     0.106 C 
BRANCH  23  24
ATOM     24  N   UNL     1       5.493   0.132   1.275  1.00  0.00    -0.297 NA
ATOM     25  C   UNL     1       5.907   1.513   1.613  1.00  0.00     0.113 C 
ATOM     26  C   UNL     1       6.351  -0.412   0.195  1.00  0.00     0.113 C 
ATOM     27  C   UNL     1       6.628   2.238   0.466  1.00  0.00     0.175 C 
ATOM     28  C   UNL     1       7.779   0.152   0.254  1.00  0.00     0.175 C 
ATOM     29  O   UNL     1       7.825   1.570   0.047  1.00  0.00    -0.379 OA
ENDBRANCH  23  24
ENDBRANCH  22  23
ENDBRANCH  20  22
ENDBRANCH   3  18
BRANCH  16  30
ATOM     30  C   UNL     1      -2.883   0.831  -2.388  1.00  0.00     0.161 C 
BRANCH  30  31
ATOM     31  C   UNL     1      -3.104   2.121  -1.617  1.00  0.00    -0.028 A 
ATOM     32  C   UNL     1      -2.129   3.132  -1.628  1.00  0.00     0.008 A 
ATOM     33  C   UNL     1      -4.274   2.315  -0.863  1.00  0.00     0.008 A 
ATOM     34  C   UNL     1      -2.321   4.312  -0.908  1.00  0.00     0.039 A 
ATOM     35  C   UNL     1      -4.465   3.496  -0.143  1.00  0.00     0.039 A 
ATOM     36  C   UNL     1      -3.487   4.483  -0.173  1.00  0.00     0.123 A 
ATOM     37  F   UNL     1      -3.672   5.614   0.520  1.00  0.00    -0.207 F 
ENDBRANCH  30  31
ENDBRANCH  16  30
TORSDOF 6
