REMARK SMILES Cc1nnc2ccc(N3CCOCC3)nn12
REMARK SMILES IDX 1 1 2 2 3 3 4 4 5 5 6 6 7 7 8 8 9 9 10 10 11 11 12 12 13 13
REMARK SMILES IDX 14 14 15 15 16 16
REMARK H PARENT
ROOT
ATOM      1  C   UNL     1       3.767   1.345   0.674  1.00  0.00     0.092 C 
ATOM      2  C   UNL     1       3.532  -0.013   0.144  1.00  0.00     0.152 A 
ATOM      3  N   UNL     1       4.434  -0.940  -0.117  1.00  0.00    -0.133 NA
ATOM      4  N   UNL     1       3.775  -2.052  -0.595  1.00  0.00    -0.129 NA
ATOM      5  C   UNL     1       2.490  -1.776  -0.614  1.00  0.00     0.178 A 
ATOM      6  C   UNL     1       1.361  -2.510  -1.010  1.00  0.00     0.055 C 
ATOM      7  C   UNL     1       0.153  -1.943  -0.903  1.00  0.00     0.053 C 
ATOM      8  C   UNL     1       0.035  -0.544  -0.353  1.00  0.00     0.149 C 
ATOM      9  N   UNL     1      -1.226   0.041  -0.228  1.00  0.00    -0.351 N 
ATOM     10  C   UNL     1      -2.333  -0.719   0.396  1.00  0.00     0.146 C 
ATOM     11  C   UNL     1      -3.685  -0.070   0.069  1.00  0.00     0.181 C 
ATOM     12  O   UNL     1      -3.720   1.302   0.481  1.00  0.00    -0.378 OA
ATOM     13  C   UNL     1      -2.691   2.043  -0.191  1.00  0.00     0.181 C 
ATOM     14  C   UNL     1      -1.300   1.481   0.123  1.00  0.00     0.146 C 
ATOM     15  N   UNL     1       1.090   0.156  -0.011  1.00  0.00    -0.147 NA
ATOM     16  N   UNL     1       2.280  -0.496  -0.154  1.00  0.00    -0.196 N 
ENDROOT
TORSDOF 0
