REMARK SMILES Cc1ccc2nc3c(cc(C(=O)NCC4CCCO4)c(=N)n3CC3CCCO3)c(=O)n2c1
REMARK SMILES IDX 1 1 2 2 3 3 4 4 5 5 6 6 7 7 8 8 9 9 10 10 20 11 21 12 22 13
REMARK SMILES IDX 29 14 30 15 31 16 32 17 23 19 24 20 25 21 28 22 26 23 27 24
REMARK SMILES IDX 11 25 12 26 13 27 14 29 15 30 16 31 19 32 17 33 18 34
REMARK H PARENT 21 18 13 28
ROOT
ATOM      1  C   UNL     1      -6.518   4.787  -0.655  1.00  0.00     0.046 C 
ATOM      2  C   UNL     1      -5.568   3.630  -0.690  1.00  0.00    -0.034 C 
ATOM      3  C   UNL     1      -6.112   2.306  -0.488  1.00  0.00     0.009 C 
ATOM      4  C   UNL     1      -5.316   1.230  -0.507  1.00  0.00     0.048 C 
ATOM      5  C   UNL     1      -3.854   1.390  -0.737  1.00  0.00     0.142 C 
ATOM      6  N   UNL     1      -3.112   0.331  -0.747  1.00  0.00    -0.212 NA
ATOM      7  C   UNL     1      -1.759   0.448  -0.969  1.00  0.00     0.149 C 
ATOM      8  C   UNL     1      -1.182   1.656  -1.161  1.00  0.00     0.084 C 
ATOM      9  C   UNL     1       0.253   1.789  -1.368  1.00  0.00     0.035 C 
ATOM     10  C   UNL     1       1.081   0.732  -1.393  1.00  0.00     0.083 C 
ATOM     11  C   UNL     1       0.441  -0.619  -1.241  1.00  0.00     0.139 C 
ATOM     12  N   UNL     1       1.156  -1.705  -1.346  1.00  0.00    -0.284 NA
ATOM     13  N   UNL     1      -0.937  -0.706  -0.999  1.00  0.00    -0.307 N 
ATOM     14  C   UNL     1      -2.033   2.880  -1.133  1.00  0.00     0.267 C 
ATOM     15  O   UNL     1      -1.518   3.990  -1.282  1.00  0.00    -0.268 OA
ATOM     16  N   UNL     1      -3.386   2.675  -0.925  1.00  0.00    -0.267 N 
ATOM     17  C   UNL     1      -4.248   3.767  -0.897  1.00  0.00     0.100 C 
ATOM     18  H   UNL     1       2.133  -1.491  -1.582  1.00  0.00     0.189 HD
ENDROOT
BRANCH  13  19
ATOM     19  C   UNL     1      -1.539  -2.045  -0.827  1.00  0.00     0.157 C 
BRANCH  19  20
ATOM     20  C   UNL     1      -1.281  -2.622   0.570  1.00  0.00     0.138 C 
ATOM     21  C   UNL     1      -1.857  -1.799   1.713  1.00  0.00     0.036 C 
ATOM     22  O   UNL     1      -1.893  -3.927   0.696  1.00  0.00    -0.376 OA
ATOM     23  C   UNL     1      -1.969  -2.837   2.802  1.00  0.00     0.031 C 
ATOM     24  C   UNL     1      -2.414  -4.058   2.026  1.00  0.00     0.160 C 
ENDBRANCH  19  20
ENDBRANCH  13  19
BRANCH  10  25
ATOM     25  C   UNL     1       2.537   0.992  -1.538  1.00  0.00     0.255 C 
ATOM     26  O   UNL     1       2.969   1.930  -2.198  1.00  0.00    -0.269 OA
ATOM     27  N   UNL     1       3.340   0.124  -0.835  1.00  0.00    -0.349 N 
ATOM     28  H   UNL     1       2.924  -0.410  -0.075  1.00  0.00     0.163 HD
BRANCH  27  29
ATOM     29  C   UNL     1       4.766   0.374  -0.707  1.00  0.00     0.148 C 
BRANCH  29  30
ATOM     30  C   UNL     1       5.487  -0.850  -0.147  1.00  0.00     0.137 C 
ATOM     31  C   UNL     1       6.980  -0.644   0.034  1.00  0.00     0.036 C 
ATOM     32  O   UNL     1       4.967  -1.169   1.162  1.00  0.00    -0.376 OA
ATOM     33  C   UNL     1       7.291  -1.644   1.118  1.00  0.00     0.031 C 
ATOM     34  C   UNL     1       6.069  -1.540   2.006  1.00  0.00     0.160 C 
ENDBRANCH  29  30
ENDBRANCH  27  29
ENDBRANCH  10  25
TORSDOF 5
