REMARK SMILES OC(Cn1cncn1)(Cn1cncn1)c1ccc(F)cc1F
REMARK SMILES IDX 2 1 1 2 3 4 4 5 5 6 8 7 6 8 7 9 9 10 10 11 11 12 14 13 12 14
REMARK SMILES IDX 13 15 15 16 16 17 21 18 17 19 20 20 18 21 22 22 19 23
REMARK H PARENT 1 3
ROOT
ATOM      1  C   UNL     1       0.602  -0.478   0.087  1.00  0.00     0.132 C 
ENDROOT
BRANCH   1   2
ATOM      2  O   UNL     1       1.740  -1.378   0.142  1.00  0.00    -0.381 OA
ATOM      3  H   UNL     1       1.479  -2.230  -0.259  1.00  0.00     0.212 HD
ENDBRANCH   1   2
BRANCH   1   4
ATOM      4  C   UNL     1       1.060   0.798   0.835  1.00  0.00     0.188 C 
BRANCH   4   5
ATOM      5  N   UNL     1       2.250   1.408   0.276  1.00  0.00    -0.250 N 
ATOM      6  C   UNL     1       3.547   1.166   0.604  1.00  0.00     0.219 A 
ATOM      7  N   UNL     1       2.158   2.368  -0.663  1.00  0.00    -0.160 NA
ATOM      8  N   UNL     1       4.328   1.960  -0.092  1.00  0.00    -0.224 NA
ATOM      9  C   UNL     1       3.446   2.680  -0.843  1.00  0.00     0.246 A 
ENDBRANCH   4   5
ENDBRANCH   1   4
BRANCH   1  10
ATOM     10  C   UNL     1       0.284  -0.194  -1.409  1.00  0.00     0.188 C 
BRANCH  10  11
ATOM     11  N   UNL     1      -0.753   0.783  -1.650  1.00  0.00    -0.250 N 
ATOM     12  C   UNL     1      -0.649   1.981  -2.285  1.00  0.00     0.219 A 
ATOM     13  N   UNL     1      -2.030   0.532  -1.307  1.00  0.00    -0.160 NA
ATOM     14  N   UNL     1      -1.834   2.544  -2.358  1.00  0.00    -0.224 NA
ATOM     15  C   UNL     1      -2.646   1.628  -1.757  1.00  0.00     0.246 A 
ENDBRANCH  10  11
ENDBRANCH   1  10
BRANCH   1  16
ATOM     16  C   UNL     1      -0.552  -1.213   0.791  1.00  0.00     0.023 A 
ATOM     17  C   UNL     1      -1.340  -0.626   1.799  1.00  0.00     0.013 A 
ATOM     18  C   UNL     1      -0.879  -2.528   0.408  1.00  0.00     0.132 A 
ATOM     19  C   UNL     1      -2.392  -1.335   2.390  1.00  0.00     0.040 A 
ATOM     20  C   UNL     1      -1.921  -3.241   0.989  1.00  0.00     0.078 A 
ATOM     21  C   UNL     1      -2.671  -2.633   1.980  1.00  0.00     0.126 A 
ATOM     22  F   UNL     1      -0.148  -3.132  -0.543  1.00  0.00    -0.206 F 
ATOM     23  F   UNL     1      -3.678  -3.304   2.553  1.00  0.00    -0.207 F 
ENDBRANCH   1  16
TORSDOF 6
