REMARK SMILES N#Cc1c(N)nc(NC2CC2)nc1N
REMARK SMILES IDX 1 1 2 2 3 3 4 4 6 5 7 6 12 7 13 8 5 9 14 12 8 15 9 17 10 18
REMARK SMILES IDX 11 19
REMARK H PARENT 5 10 5 11 14 13 14 14 8 16
ROOT
ATOM      1  N   UNL     1       4.977  -0.447  -0.621  1.00  0.00    -0.192 NA
ATOM      2  C   UNL     1       3.836  -0.251  -0.527  1.00  0.00     0.107 C 
ATOM      3  C   UNL     1       2.449   0.035  -0.379  1.00  0.00     0.136 A 
ATOM      4  C   UNL     1       1.499  -0.967  -0.320  1.00  0.00     0.149 A 
ATOM      5  N   UNL     1       0.191  -0.709  -0.194  1.00  0.00    -0.195 NA
ATOM      6  C   UNL     1      -0.185   0.574  -0.101  1.00  0.00     0.226 A 
ATOM      7  N   UNL     1       0.670   1.602  -0.146  1.00  0.00    -0.195 NA
ATOM      8  C   UNL     1       1.977   1.333  -0.287  1.00  0.00     0.149 A 
ENDROOT
BRANCH   4   9
ATOM      9  N   UNL     1       1.815  -2.322  -0.439  1.00  0.00    -0.382 N 
ATOM     10  H   UNL     1       0.951  -2.850  -0.330  1.00  0.00     0.158 HD
ATOM     11  H   UNL     1       2.525  -2.634   0.216  1.00  0.00     0.158 HD
ENDBRANCH   4   9
BRANCH   8  12
ATOM     12  N   UNL     1       2.821   2.454  -0.334  1.00  0.00    -0.382 N 
ATOM     13  H   UNL     1       3.501   2.434   0.422  1.00  0.00     0.158 HD
ATOM     14  H   UNL     1       3.336   2.487  -1.211  1.00  0.00     0.158 HD
ENDBRANCH   8  12
BRANCH   6  15
ATOM     15  N   UNL     1      -1.534   0.909   0.047  1.00  0.00    -0.351 N 
ATOM     16  H   UNL     1      -1.611   1.898  -0.168  1.00  0.00     0.163 HD
BRANCH  15  17
ATOM     17  C   UNL     1      -2.560  -0.007  -0.433  1.00  0.00     0.082 C 
ATOM     18  C   UNL     1      -3.138  -1.065   0.465  1.00  0.00     0.027 C 
ATOM     19  C   UNL     1      -3.973   0.116   0.066  1.00  0.00     0.027 C 
ENDBRANCH  15  17
ENDBRANCH   6  15
TORSDOF 4
