REMARK SMILES CCNc1nc(Cl)nc(NCC)n1
REMARK SMILES IDX 4 1 5 2 6 3 7 4 8 5 9 6 13 7 3 8 2 10 1 11 10 12 11 14 12 15
REMARK H PARENT 3 9 10 13
ROOT
ATOM      1  C   UNL     1      -0.885  -0.010  -0.376  1.00  0.00     0.228 A 
ATOM      2  N   UNL     1      -1.341   1.212  -0.576  1.00  0.00    -0.182 NA
ATOM      3  C   UNL     1      -0.433   2.038  -1.070  1.00  0.00     0.228 A 
ATOM      4  Cl  UNL     1      -0.956   3.643  -1.344  1.00  0.00    -0.041 Cl
ATOM      5  N   UNL     1       0.835   1.786  -1.354  1.00  0.00    -0.182 NA
ATOM      6  C   UNL     1       1.186   0.538  -1.114  1.00  0.00     0.228 A 
ATOM      7  N   UNL     1       0.366  -0.384  -0.618  1.00  0.00    -0.177 NA
ENDROOT
BRANCH   1   8
ATOM      8  N   UNL     1      -1.717  -1.004   0.118  1.00  0.00    -0.354 N 
ATOM      9  H   UNL     1      -1.115  -1.746   0.458  1.00  0.00     0.163 HD
BRANCH   8  10
ATOM     10  C   UNL     1      -2.773  -0.589   1.024  1.00  0.00     0.112 C 
ATOM     11  C   UNL     1      -4.060  -0.305   0.265  1.00  0.00     0.027 C 
ENDBRANCH   8  10
ENDBRANCH   1   8
BRANCH   6  12
ATOM     12  N   UNL     1       2.499   0.221  -1.412  1.00  0.00    -0.354 N 
ATOM     13  H   UNL     1       3.020   1.084  -1.523  1.00  0.00     0.163 HD
BRANCH  12  14
ATOM     14  C   UNL     1       3.142  -0.821  -0.632  1.00  0.00     0.112 C 
ATOM     15  C   UNL     1       3.494  -0.338   0.766  1.00  0.00     0.027 C 
ENDBRANCH  12  14
ENDBRANCH   6  12
TORSDOF 4
