REMARK SMILES CN1COCN(Cc2cnc(Cl)s2)C1=N[N+](=O)[O-]
REMARK SMILES IDX 1 1 2 2 3 3 4 4 5 5 6 6 14 7 15 8 7 9 8 10 9 11 13 12 10 13
REMARK SMILES IDX 11 14 12 15 16 16 17 17 18 18
REMARK H PARENT
ROOT
ATOM      1  C   UNL     1      -3.219   0.762  -0.320  1.00  0.00     0.149 C 
ATOM      2  N   UNL     1      -1.952   0.064  -0.144  1.00  0.00    -0.317 N 
ATOM      3  C   UNL     1      -1.871  -1.186  -0.883  1.00  0.00     0.285 C 
ATOM      4  O   UNL     1      -0.679  -1.907  -0.642  1.00  0.00    -0.341 OA
ATOM      5  C   UNL     1      -0.339  -1.794   0.718  1.00  0.00     0.286 C 
ATOM      6  N   UNL     1      -0.030  -0.417   0.993  1.00  0.00    -0.309 N 
ATOM      7  C   UNL     1      -0.842   0.593   0.500  1.00  0.00     0.277 C 
ATOM      8  N   UNL     1      -0.491   1.823   0.736  1.00  0.00     0.101 NA
ENDROOT
BRANCH   6   9
ATOM      9  C   UNL     1       1.270  -0.151   1.606  1.00  0.00     0.170 C 
BRANCH   9  10
ATOM     10  C   UNL     1       2.441  -0.209   0.673  1.00  0.00     0.045 A 
ATOM     11  C   UNL     1       3.390  -1.204   0.521  1.00  0.00     0.130 A 
ATOM     12  S   UNL     1       2.790   1.072  -0.421  1.00  0.00    -0.106 S 
ATOM     13  N   UNL     1       4.364  -0.970  -0.430  1.00  0.00    -0.233 NA
ATOM     14  C   UNL     1       4.128   0.193  -0.985  1.00  0.00     0.183 A 
ATOM     15  Cl  UNL     1       5.122   0.840  -2.224  1.00  0.00    -0.051 Cl
ENDBRANCH   9  10
ENDBRANCH   6   9
BRANCH   8  16
ATOM     16  N   UNL     1      -1.200   2.803   0.184  1.00  0.00     0.194 N 
ATOM     17  O   UNL     1      -1.038   3.061  -1.018  1.00  0.00    -0.233 OA
ATOM     18  O   UNL     1      -1.973   3.448   0.908  1.00  0.00    -0.233 OA
ENDBRANCH   8  16
TORSDOF 3
